                         Program Version 4.1.2  - RELEASE  -
|  1> !uks pbe nori aug-pc-4 grid5 nofinalgrid verytightscf
|  2>
|  3> %maxcore 1500
|  4>
|  5> %pal nprocs 4 end
|  6>
|  7> %scf
|  8> 	maxiter 200
|  9> end
| 10> %elprop
| 11> 	dipole true
| 12> 	 polar 1
| 13> 	 maxiter 200
| 14> end
| 15>
| 16> * xyz 0 1
| 17> Al 0.0000 0.0000 0.0000
| 18> F 0.0000 0.0000 1.6544
| 19> *
| 20>
| 21>                          ****END OF INPUT****

CARTESIAN COORDINATES (ANGSTROEM)
---------------------------------
  Al     0.000000    0.000000    0.000000
  F      0.000000    0.000000    1.654400

 Total Charge           Charge          ....    0
 Multiplicity           Mult            ....    1
 Number of Electrons    NEL             ....   22
 Basis Dimension        Dim             ....  286

ORBITAL ENERGIES
----------------
                 SPIN UP ORBITALS
  NO   OCC          E(Eh)            E(eV)
   0   1.0000     -55.376887     -1506.8817
   1   1.0000     -24.217918      -659.0031
   2   1.0000      -3.943649      -107.3121
   3   1.0000      -2.547222       -69.3134
   4   1.0000      -2.547222       -69.3134
   5   1.0000      -2.541646       -69.1617
   6   1.0000      -1.041527       -28.3414
   7   1.0000      -0.399449       -10.8696
   8   1.0000      -0.350212        -9.5298
   9   1.0000      -0.350212        -9.5298
  10   1.0000      -0.228013        -6.2046
  11   0.0000      -0.076610        -2.0847
  12   0.0000      -0.076610        -2.0847
  13   0.0000      -0.018718        -0.5093
  14   0.0000      -0.000596        -0.0162
  15   0.0000       0.013038         0.3548

                 SPIN DOWN ORBITALS
  NO   OCC          E(Eh)            E(eV)
   0   1.0000     -55.376887     -1506.8817
   1   1.0000     -24.217918      -659.0031
   2   1.0000      -3.943649      -107.3121
   3   1.0000      -2.547222       -69.3134
   4   1.0000      -2.547222       -69.3134
   5   1.0000      -2.541646       -69.1617
   6   1.0000      -1.041527       -28.3414
   7   1.0000      -0.399449       -10.8696
   8   1.0000      -0.350212        -9.5298
   9   1.0000      -0.350212        -9.5298
  10   1.0000      -0.228013        -6.2046
  11   0.0000      -0.076610        -2.0847
  12   0.0000      -0.076610        -2.0847
  13   0.0000      -0.018718        -0.5093
  14   0.0000      -0.000596        -0.0162
  15   0.0000       0.013038         0.3548

MULLIKEN ATOMIC CHARGES AND SPIN POPULATIONS
--------------------------------------------
   0 Al:    0.388689   -0.000000
   1 F :   -0.388689    0.000000
Sum of atomic charges         :    0.0000000

LOEWDIN ATOMIC CHARGES AND SPIN POPULATIONS
-------------------------------------------
   0 Al:    0.582185   -0.000000
   1 F :   -0.582185    0.000000

  Mayer bond orders larger than 0.1
B(  0-Al,  1-F ) :   0.9894

FINAL SINGLE POINT ENERGY      -342.172247987815

DIPOLE MOMENT
-------------
                                X             Y             Z
Electronic contribution:     -0.00000       0.00000      -0.25936
Nuclear contribution   :      0.00000       0.00000      -0.28122
                        -----------------------------------------
Total Dipole Moment    :     -0.00000       0.00000      -0.54058
                        -----------------------------------------
Magnitude (a.u.)       :      0.54058
Magnitude (Debye)      :      1.37405

Rotational constants in cm-1:     0.000000     0.552462     0.552462
Rotational constants in MHz :     0.000000 16562.409063 16562.409063

                             ****ORCA TERMINATED NORMALLY****
TOTAL RUN TIME: 0 days 0 hours 13 minutes 34 seconds 843 msec
