                         Program Version 4.1.2  - RELEASE  -
|  1> !uks pbe nori aug-pc-4 grid5 nofinalgrid verytightscf
|  2>
|  3> %maxcore 1500
|  4>
|  5> %pal nprocs 4 end
|  6>
|  7> %scf
|  8> 	maxiter 200
|  9> end
| 10> %elprop
| 11> 	dipole true
| 12> 	 polar 1
| 13> 	 maxiter 200
| 14> end
| 15>
| 16> * xyz 0 2
| 17> H 0 0 0
| 18> Be 0 0 1.3426
| 19> *
| 20>
| 21>                          ****END OF INPUT****

CARTESIAN COORDINATES (ANGSTROEM)
---------------------------------
  H      0.000000    0.000000    0.000000
  Be     0.000000    0.000000    1.342600

 Total Charge           Charge          ....    0
 Multiplicity           Mult            ....    2
 Number of Electrons    NEL             ....    5
 Basis Dimension        Dim             ....  171

ORBITAL ENERGIES
----------------
                 SPIN UP ORBITALS
  NO   OCC          E(Eh)            E(eV)
   0   1.0000      -3.886218      -105.7494
   1   1.0000      -0.306037        -8.3277
   2   1.0000      -0.172781        -4.7016
   3   0.0000      -0.080275        -2.1844
   4   0.0000      -0.080275        -2.1844
   5   0.0000      -0.003643        -0.0991
   6   0.0000       0.010697         0.2911
   7   0.0000       0.018785         0.5112

                 SPIN DOWN ORBITALS
  NO   OCC          E(Eh)            E(eV)
   0   1.0000      -3.877240      -105.5051
   1   1.0000      -0.294948        -8.0259
   2   0.0000      -0.088398        -2.4054
   3   0.0000      -0.050535        -1.3751
   4   0.0000      -0.050535        -1.3751
   5   0.0000       0.005789         0.1575
   6   0.0000       0.024899         0.6775

MULLIKEN ATOMIC CHARGES AND SPIN POPULATIONS
--------------------------------------------
   0 H :   -0.170359    0.098445
   1 Be:    0.170359    0.901555
Sum of atomic charges         :   -0.0000000

LOEWDIN ATOMIC CHARGES AND SPIN POPULATIONS
-------------------------------------------
   0 H :   -0.400775    0.258004
   1 Be:    0.400775    0.741996

  Mayer bond orders larger than 0.1
B(  0-H ,  1-Be) :   0.9132

FINAL SINGLE POINT ENERGY       -15.218461450646

DIPOLE MOMENT
-------------
                                X             Y             Z
Electronic contribution:     -0.00000      -0.00000       1.35675
Nuclear contribution   :      0.00000       0.00000      -1.26098
                        -----------------------------------------
Total Dipole Moment    :     -0.00000      -0.00000       0.09578
                        -----------------------------------------
Magnitude (a.u.)       :      0.09578
Magnitude (Debye)      :      0.24344

Rotational constants in cm-1:     0.000000    10.315484    10.315484
Rotational constants in MHz :     0.000000 309250.438866 309250.438866

                             ****ORCA TERMINATED NORMALLY****
TOTAL RUN TIME: 0 days 0 hours 0 minutes 56 seconds 404 msec
