                         Program Version 4.1.2  - RELEASE  -
|  1> !uks pbe nori aug-pc-4 grid5 nofinalgrid verytightscf
|  2>
|  3> %maxcore 1500
|  4>
|  5> %pal nprocs 4 end
|  6>
|  7> %scf
|  8> 	maxiter 200
|  9> end
| 10> %elprop
| 11> 	dipole true
| 12> 	 polar 1
| 13> 	 maxiter 200
| 14> end
| 15>
| 16> * xyz 0 1
| 17> B 0.0000 0.0000 0.0000
| 18> F 0.0000 0.0000 1.2669
| 19> *
| 20>
| 21>                          ****END OF INPUT****

CARTESIAN COORDINATES (ANGSTROEM)
---------------------------------
  B      0.000000    0.000000    0.000000
  F      0.000000    0.000000    1.266900

 Total Charge           Charge          ....    0
 Multiplicity           Mult            ....    1
 Number of Electrons    NEL             ....   14
 Basis Dimension        Dim             ....  290

ORBITAL ENERGIES
----------------
                 SPIN UP ORBITALS
  NO   OCC          E(Eh)            E(eV)
   0   1.0000     -24.346458      -662.5008
   1   1.0000      -6.615326      -180.0122
   2   1.0000      -1.198238       -32.6057
   3   1.0000      -0.559037       -15.2122
   4   1.0000      -0.474170       -12.9028
   5   1.0000      -0.474170       -12.9028
   6   1.0000      -0.249605        -6.7921
   7   0.0000      -0.079383        -2.1601
   8   0.0000      -0.079383        -2.1601
   9   0.0000      -0.004320        -0.1176
  10   0.0000       0.013778         0.3749
  11   0.0000       0.015026         0.4089

                 SPIN DOWN ORBITALS
  NO   OCC          E(Eh)            E(eV)
   0   1.0000     -24.346458      -662.5008
   1   1.0000      -6.615326      -180.0122
   2   1.0000      -1.198238       -32.6057
   3   1.0000      -0.559037       -15.2122
   4   1.0000      -0.474170       -12.9028
   5   1.0000      -0.474170       -12.9028
   6   1.0000      -0.249605        -6.7921
   7   0.0000      -0.079383        -2.1601
   8   0.0000      -0.079383        -2.1601
   9   0.0000      -0.004320        -0.1176
  10   0.0000       0.013778         0.3749
  11   0.0000       0.015026         0.4089

MULLIKEN ATOMIC CHARGES AND SPIN POPULATIONS
--------------------------------------------
   0 B :    0.251045    0.000000
   1 F :   -0.251045   -0.000000
Sum of atomic charges         :   -0.0000000

LOEWDIN ATOMIC CHARGES AND SPIN POPULATIONS
-------------------------------------------
   0 B :   -0.180301    0.000000
   1 F :    0.180301    0.000000

  Mayer bond orders larger than 0.1
B(  0-B ,  1-F ) :   1.6274

FINAL SINGLE POINT ENERGY      -124.586266531799

DIPOLE MOMENT
-------------
                                X             Y             Z
Electronic contribution:      0.00000       0.00000       0.22778
Nuclear contribution   :      0.00000       0.00000       0.18473
                        -----------------------------------------
Total Dipole Moment    :      0.00000       0.00000       0.41251
                        -----------------------------------------
Magnitude (a.u.)       :      0.41251
Magnitude (Debye)      :      1.04853

Rotational constants in cm-1:     0.000000     1.524444     1.524444
Rotational constants in MHz :     0.000000 45701.682824 45701.682824

                             ****ORCA TERMINATED NORMALLY****
TOTAL RUN TIME: 0 days 0 hours 11 minutes 3 seconds 631 msec
