                         Program Version 4.1.2  - RELEASE  -
|  1> !uks pbe nori aug-pc-4 grid5 nofinalgrid verytightscf
|  2>
|  3> %maxcore 1500
|  4>
|  5> %pal nprocs 4 end
|  6>
|  7> %scf
|  8> 	maxiter 200
|  9> end
| 10> %elprop
| 11> 	dipole true
| 12> 	 polar 1
| 13> 	 maxiter 200
| 14> end
| 15>
| 16> * xyz 0 1
| 17> B 0.0000000000 0.0000000000 0.0000000000
| 18> Cl 0.0000000000 0.0000000000 1.7353000000
| 19> H 0.0000000000 1.0532000000 -0.5574000000
| 20> H 0.0000000000 -1.0532000000 -0.5574000000
| 21> *
| 22>
| 23>                          ****END OF INPUT****

CARTESIAN COORDINATES (ANGSTROEM)
---------------------------------
  B      0.000000    0.000000    0.000000
  Cl     0.000000    0.000000    1.735300
  H      0.000000    1.053200   -0.557400
  H      0.000000   -1.053200   -0.557400

 Total Charge           Charge          ....    0
 Multiplicity           Mult            ....    1
 Number of Electrons    NEL             ....   24
 Basis Dimension        Dim             ....  462

ORBITAL ENERGIES
----------------
                 SPIN UP ORBITALS
  NO   OCC          E(Eh)            E(eV)
   0   1.0000    -100.665459     -2739.2464
   1   1.0000      -9.190900      -250.0971
   2   1.0000      -7.009858      -190.7479
   3   1.0000      -7.007065      -190.6719
   4   1.0000      -7.003070      -190.5632
   5   1.0000      -6.563091      -178.5908
   6   1.0000      -0.779149       -21.2017
   7   1.0000      -0.472111       -12.8468
   8   1.0000      -0.364098        -9.9076
   9   1.0000      -0.360997        -9.8232
  10   1.0000      -0.326664        -8.8890
  11   1.0000      -0.268509        -7.3065
  12   0.0000      -0.106536        -2.8990
  13   0.0000      -0.009392        -0.2556
  14   0.0000       0.001229         0.0334
  15   0.0000       0.008984         0.2445
  16   0.0000       0.012740         0.3467

                 SPIN DOWN ORBITALS
  NO   OCC          E(Eh)            E(eV)
   0   1.0000    -100.665459     -2739.2464
   1   1.0000      -9.190900      -250.0971
   2   1.0000      -7.009858      -190.7479
   3   1.0000      -7.007065      -190.6719
   4   1.0000      -7.003070      -190.5632
   5   1.0000      -6.563091      -178.5908
   6   1.0000      -0.779149       -21.2017
   7   1.0000      -0.472111       -12.8468
   8   1.0000      -0.364098        -9.9076
   9   1.0000      -0.360997        -9.8232
  10   1.0000      -0.326664        -8.8890
  11   1.0000      -0.268509        -7.3065
  12   0.0000      -0.106536        -2.8990
  13   0.0000      -0.009392        -0.2556
  14   0.0000       0.001229         0.0334
  15   0.0000       0.008984         0.2445
  16   0.0000       0.012740         0.3467

MULLIKEN ATOMIC CHARGES AND SPIN POPULATIONS
--------------------------------------------
   0 B :    0.012525   -0.000000
   1 Cl:   -0.107364    0.000000
   2 H :    0.047369    0.000000
   3 H :    0.047470   -0.000000
Sum of atomic charges         :   -0.0000000

LOEWDIN ATOMIC CHARGES AND SPIN POPULATIONS
-------------------------------------------
   0 B :    0.040273   -0.000000
   1 Cl:    1.160287    0.000000
   2 H :   -0.600280    0.000000
   3 H :   -0.600280    0.000000

  Mayer bond orders larger than 0.1
B(  0-B ,  1-Cl) :   1.3517 B(  0-B ,  2-H ) :   0.9367 B(  0-B ,  3-H ) :   0.9366

FINAL SINGLE POINT ENERGY      -486.067042484540

DIPOLE MOMENT
-------------
                                X             Y             Z
Electronic contribution:      0.00000      -0.00000       2.92515
Nuclear contribution   :      0.00000       0.00000      -3.09749
                        -----------------------------------------
Total Dipole Moment    :      0.00000      -0.00000      -0.17233
                        -----------------------------------------
Magnitude (a.u.)       :      0.17233
Magnitude (Debye)      :      0.43804

Rotational constants in cm-1:     7.538495     0.529682     0.494908
Rotational constants in MHz : 225998.405632 15879.461453 14836.963026

                             ****ORCA TERMINATED NORMALLY****
TOTAL RUN TIME: 0 days 0 hours 58 minutes 35 seconds 950 msec
