                         Program Version 4.1.2  - RELEASE  -
|  1> !uks pbe nori aug-pc-4 grid5 nofinalgrid verytightscf
|  2>
|  3> %maxcore 1500
|  4>
|  5> %pal nprocs 4 end
|  6>
|  7> %scf
|  8> 	maxiter 200
|  9> end
| 10> %elprop
| 11> 	dipole true
| 12> 	 polar 1
| 13> 	 maxiter 200
| 14> end
| 15>
| 16> * xyz 0 1
| 17> B 0.0000000000 0.0000000000 0.0000000000
| 18> F 0.0000000000 0.0000000000 1.3157000000
| 19> H 0.0000000000 1.0599000000 -0.5569000000
| 20> H 0.0000000000 -1.0599000000 -0.5569000000
| 21> *
| 22>
| 23>                          ****END OF INPUT****

CARTESIAN COORDINATES (ANGSTROEM)
---------------------------------
  B      0.000000    0.000000    0.000000
  F      0.000000    0.000000    1.315700
  H      0.000000    1.059900   -0.556900
  H      0.000000   -1.059900   -0.556900

 Total Charge           Charge          ....    0
 Multiplicity           Mult            ....    1
 Number of Electrons    NEL             ....   16
 Basis Dimension        Dim             ....  466

ORBITAL ENERGIES
----------------
                 SPIN UP ORBITALS
  NO   OCC          E(Eh)            E(eV)
   0   1.0000     -24.279454      -660.6775
   1   1.0000      -6.567050      -178.6985
   2   1.0000      -1.127650       -30.6849
   3   1.0000      -0.510419       -13.8892
   4   1.0000      -0.426179       -11.5969
   5   1.0000      -0.416031       -11.3208
   6   1.0000      -0.403062       -10.9679
   7   1.0000      -0.285786        -7.7766
   8   0.0000      -0.084090        -2.2882
   9   0.0000      -0.005516        -0.1501
  10   0.0000       0.006241         0.1698
  11   0.0000       0.011173         0.3040
  12   0.0000       0.016516         0.4494

                 SPIN DOWN ORBITALS
  NO   OCC          E(Eh)            E(eV)
   0   1.0000     -24.279454      -660.6775
   1   1.0000      -6.567050      -178.6985
   2   1.0000      -1.127650       -30.6849
   3   1.0000      -0.510419       -13.8892
   4   1.0000      -0.426179       -11.5969
   5   1.0000      -0.416031       -11.3208
   6   1.0000      -0.403062       -10.9679
   7   1.0000      -0.285786        -7.7766
   8   0.0000      -0.084090        -2.2882
   9   0.0000      -0.005516        -0.1501
  10   0.0000       0.006241         0.1698
  11   0.0000       0.011173         0.3040
  12   0.0000       0.016516         0.4494

MULLIKEN ATOMIC CHARGES AND SPIN POPULATIONS
--------------------------------------------
   0 B :    0.281934   -0.000000
   1 F :   -0.289331   -0.000000
   2 H :    0.003702    0.000000
   3 H :    0.003695    0.000000
Sum of atomic charges         :    0.0000000

LOEWDIN ATOMIC CHARGES AND SPIN POPULATIONS
-------------------------------------------
   0 B :    0.199423   -0.000000
   1 F :    0.448825   -0.000000
   2 H :   -0.324124    0.000000
   3 H :   -0.324124    0.000000

  Mayer bond orders larger than 0.1
B(  0-B ,  1-F ) :   1.2720 B(  0-B ,  2-H ) :   0.9041 B(  0-B ,  3-H ) :   0.9041

FINAL SINGLE POINT ENERGY      -125.841476426524

DIPOLE MOMENT
-------------
                                X             Y             Z
Electronic contribution:     -0.00000       0.00000       2.16869
Nuclear contribution   :      0.00000       0.00000      -2.40939
                        -----------------------------------------
Total Dipole Moment    :     -0.00000       0.00000      -0.24070
                        -----------------------------------------
Magnitude (a.u.)       :      0.24070
Magnitude (Debye)      :      0.61180

Rotational constants in cm-1:     7.443490     1.080369     0.943436
Rotational constants in MHz : 223150.205883 32388.645097 28283.498944

                             ****ORCA TERMINATED NORMALLY****
TOTAL RUN TIME: 0 days 0 hours 41 minutes 31 seconds 585 msec
