                         Program Version 4.1.2  - RELEASE  -
|  1> !uks pbe nori aug-pc-4 grid5 nofinalgrid verytightscf
|  2>
|  3> %maxcore 1500
|  4>
|  5> %pal nprocs 4 end
|  6>
|  7> %scf
|  8> 	maxiter 200
|  9> end
| 10> %elprop
| 11> 	dipole true
| 12> 	 polar 1
| 13> 	 maxiter 200
| 14> end
| 15>
| 16> * xyz 0 1
| 17> B 0.0000 0.0000 0.4547
| 18> H 0.0000 0.0000 1.6437
| 19> F 0.0000 1.1255 -0.2176
| 20> F 0.0000 -1.1255 -0.2176
| 21> *
| 22>
| 23>                          ****END OF INPUT****

CARTESIAN COORDINATES (ANGSTROEM)
---------------------------------
  B      0.000000    0.000000    0.454700
  H      0.000000    0.000000    1.643700
  F      0.000000    1.125500   -0.217600
  F      0.000000   -1.125500   -0.217600

 Total Charge           Charge          ....    0
 Multiplicity           Mult            ....    1
 Number of Electrons    NEL             ....   24
 Basis Dimension        Dim             ....  523

ORBITAL ENERGIES
----------------
                 SPIN UP ORBITALS
  NO   OCC          E(Eh)            E(eV)
   0   1.0000     -24.284559      -660.8165
   1   1.0000     -24.284559      -660.8165
   2   1.0000      -6.609195      -179.8453
   3   1.0000      -1.151050       -31.3217
   4   1.0000      -1.123418       -30.5698
   5   1.0000      -0.530993       -14.4491
   6   1.0000      -0.485706       -13.2167
   7   1.0000      -0.462934       -12.5971
   8   1.0000      -0.446750       -12.1567
   9   1.0000      -0.394986       -10.7481
  10   1.0000      -0.374939       -10.2026
  11   1.0000      -0.336021        -9.1436
  12   0.0000      -0.053909        -1.4669
  13   0.0000      -0.008669        -0.2359
  14   0.0000       0.007130         0.1940
  15   0.0000       0.009611         0.2615
  16   0.0000       0.015920         0.4332

                 SPIN DOWN ORBITALS
  NO   OCC          E(Eh)            E(eV)
   0   1.0000     -24.284559      -660.8165
   1   1.0000     -24.284559      -660.8165
   2   1.0000      -6.609195      -179.8453
   3   1.0000      -1.151050       -31.3217
   4   1.0000      -1.123418       -30.5698
   5   1.0000      -0.530993       -14.4491
   6   1.0000      -0.485706       -13.2167
   7   1.0000      -0.462934       -12.5971
   8   1.0000      -0.446750       -12.1567
   9   1.0000      -0.394986       -10.7481
  10   1.0000      -0.374939       -10.2026
  11   1.0000      -0.336021        -9.1436
  12   0.0000      -0.053909        -1.4669
  13   0.0000      -0.008669        -0.2359
  14   0.0000       0.007130         0.1940
  15   0.0000       0.009611         0.2615
  16   0.0000       0.015920         0.4332

MULLIKEN ATOMIC CHARGES AND SPIN POPULATIONS
--------------------------------------------
   0 B :    0.397490   -0.000000
   1 H :    0.069423   -0.000000
   2 F :   -0.233433    0.000000
   3 F :   -0.233480    0.000000
Sum of atomic charges         :   -0.0000000

LOEWDIN ATOMIC CHARGES AND SPIN POPULATIONS
-------------------------------------------
   0 B :   -0.397623    0.000000
   1 H :   -0.363107   -0.000000
   2 F :    0.380365    0.000000
   3 F :    0.380365   -0.000000

  Mayer bond orders larger than 0.1
B(  0-B ,  1-H ) :   0.9447 B(  0-B ,  2-F ) :   1.2559 B(  0-B ,  3-F ) :   1.2559

FINAL SINGLE POINT ENERGY      -225.130634695109

DIPOLE MOMENT
-------------
                                X             Y             Z
Electronic contribution:     -0.00000       0.00000      -1.23983
Nuclear contribution   :      0.00000       0.00000       1.54468
                        -----------------------------------------
Total Dipole Moment    :     -0.00000       0.00000       0.30485
                        -----------------------------------------
Magnitude (a.u.)       :      0.30485
Magnitude (Debye)      :      0.77487

Rotational constants in cm-1:     2.516169     0.350242     0.307446
Rotational constants in MHz : 75432.840017 10499.986151  9217.010668

                             ****ORCA TERMINATED NORMALLY****
TOTAL RUN TIME: 0 days 1 hours 3 minutes 59 seconds 878 msec
