                         Program Version 4.1.2  - RELEASE  -
|  1> !uks pbe nori aug-pc-4 grid5 nofinalgrid verytightscf
|  2>
|  3> %maxcore 1500
|  4>
|  5> %pal nprocs 4 end
|  6>
|  7> %scf
|  8> 	maxiter 200
|  9> end
| 10> %elprop
| 11> 	dipole true
| 12> 	 polar 1
| 13> 	 maxiter 200
| 14> end
| 15>
| 16> * xyz 0 3
| 17> B 0.0000 0.0000 0.0000
| 18> N 0.0000 0.0000 1.3250
| 19> *
| 20>
| 21>                          ****END OF INPUT****

CARTESIAN COORDINATES (ANGSTROEM)
---------------------------------
  B      0.000000    0.000000    0.000000
  N      0.000000    0.000000    1.325000

 Total Charge           Charge          ....    0
 Multiplicity           Mult            ....    3
 Number of Electrons    NEL             ....   12
 Basis Dimension        Dim             ....  290

ORBITAL ENERGIES
----------------
                 SPIN UP ORBITALS
  NO   OCC          E(Eh)            E(eV)
   0   1.0000     -14.042699      -382.1213
   1   1.0000      -6.604818      -179.7262
   2   1.0000      -0.772803       -21.0290
   3   1.0000      -0.363928        -9.9030
   4   1.0000      -0.334790        -9.1101
   5   1.0000      -0.290319        -7.9000
   6   1.0000      -0.283347        -7.7103
   7   0.0000      -0.082241        -2.2379
   8   0.0000      -0.058375        -1.5885
   9   0.0000      -0.004456        -0.1212
  10   0.0000       0.008304         0.2260
  11   0.0000       0.012433         0.3383

                 SPIN DOWN ORBITALS
  NO   OCC          E(Eh)            E(eV)
   0   1.0000     -14.026592      -381.6830
   1   1.0000      -6.589427      -179.3074
   2   1.0000      -0.722042       -19.6478
   3   1.0000      -0.317859        -8.6494
   4   1.0000      -0.272379        -7.4118
   5   0.0000      -0.247512        -6.7352
   6   0.0000      -0.189605        -5.1594
   7   0.0000      -0.023066        -0.6277
   8   0.0000      -0.007212        -0.1963
   9   0.0000       0.008860         0.2411

MULLIKEN ATOMIC CHARGES AND SPIN POPULATIONS
--------------------------------------------
   0 B :    0.044875    1.140266
   1 N :   -0.044875    0.859734
Sum of atomic charges         :   -0.0000000

LOEWDIN ATOMIC CHARGES AND SPIN POPULATIONS
-------------------------------------------
   0 B :   -0.012494    1.034419
   1 N :    0.012494    0.965581

  Mayer bond orders larger than 0.1
B(  0-B ,  1-N ) :   2.2952

FINAL SINGLE POINT ENERGY       -79.343745123056

DIPOLE MOMENT
-------------
                                X             Y             Z
Electronic contribution:     -0.00000       0.00000      -1.31215
Nuclear contribution   :      0.00000       0.00000       0.56854
                        -----------------------------------------
Total Dipole Moment    :     -0.00000       0.00000      -0.74361
                        -----------------------------------------
Magnitude (a.u.)       :      0.74361
Magnitude (Debye)      :      1.89011

Rotational constants in cm-1:     0.000000     1.573778     1.573778
Rotational constants in MHz :     0.000000 47180.691902 47180.691902

                             ****ORCA TERMINATED NORMALLY****
TOTAL RUN TIME: 0 days 0 hours 11 minutes 55 seconds 859 msec
