                         Program Version 4.1.2  - RELEASE  -
|  1> !uks pbe nori aug-pc-4 grid5 nofinalgrid verytightscf
|  2>
|  3> %maxcore 1500
|  4>
|  5> %pal nprocs 4 end
|  6>
|  7> %scf
|  8> 	maxiter 200
|  9> end
| 10> %elprop
| 11> 	dipole true
| 12> 	 polar 1
| 13> 	 maxiter 200
| 14> end
| 15>
| 16> * xyz 0 2
| 17> B 0.0000 0.0000 0.0000
| 18> O 0.0000 0.0000 1.2045
| 19> *
| 20>
| 21>                          ****END OF INPUT****

CARTESIAN COORDINATES (ANGSTROEM)
---------------------------------
  B      0.000000    0.000000    0.000000
  O      0.000000    0.000000    1.204500

 Total Charge           Charge          ....    0
 Multiplicity           Mult            ....    2
 Number of Electrons    NEL             ....   13
 Basis Dimension        Dim             ....  290

ORBITAL ENERGIES
----------------
                 SPIN UP ORBITALS
  NO   OCC          E(Eh)            E(eV)
   0   1.0000     -18.772599      -510.8284
   1   1.0000      -6.594267      -179.4391
   2   1.0000      -0.919955       -25.0332
   3   1.0000      -0.397283       -10.8106
   4   1.0000      -0.338338        -9.2066
   5   1.0000      -0.338338        -9.2066
   6   1.0000      -0.306318        -8.3353
   7   0.0000      -0.059026        -1.6062
   8   0.0000      -0.059026        -1.6062
   9   0.0000      -0.002613        -0.0711
  10   0.0000       0.010113         0.2752
  11   0.0000       0.015640         0.4256

                 SPIN DOWN ORBITALS
  NO   OCC          E(Eh)            E(eV)
   0   1.0000     -18.773111      -510.8423
   1   1.0000      -6.579363      -179.0336
   2   1.0000      -0.918377       -24.9903
   3   1.0000      -0.385323       -10.4852
   4   1.0000      -0.335276        -9.1233
   5   1.0000      -0.335276        -9.1233
   6   0.0000      -0.200611        -5.4589
   7   0.0000      -0.017357        -0.4723
   8   0.0000      -0.017357        -0.4723
   9   0.0000       0.011976         0.3259
  10   0.0000       0.015298         0.4163

MULLIKEN ATOMIC CHARGES AND SPIN POPULATIONS
--------------------------------------------
   0 B :    0.395216    0.950745
   1 O :   -0.395216    0.049255
Sum of atomic charges         :   -0.0000000

LOEWDIN ATOMIC CHARGES AND SPIN POPULATIONS
-------------------------------------------
   0 B :   -0.161404    0.763551
   1 O :    0.161404    0.236449

  Mayer bond orders larger than 0.1
B(  0-B ,  1-O ) :   2.4578

FINAL SINGLE POINT ENERGY       -99.958076335393

DIPOLE MOMENT
-------------
                                X             Y             Z
Electronic contribution:      0.00000       0.00000      -1.40977
Nuclear contribution   :      0.00000       0.00000       0.55060
                        -----------------------------------------
Total Dipole Moment    :      0.00000       0.00000      -0.85917
                        -----------------------------------------
Magnitude (a.u.)       :      0.85917
Magnitude (Debye)      :      2.18383

Rotational constants in cm-1:     0.000000     1.801131     1.801131
Rotational constants in MHz :     0.000000 53996.558117 53996.558117

                             ****ORCA TERMINATED NORMALLY****
TOTAL RUN TIME: 0 days 0 hours 11 minutes 5 seconds 142 msec
