                         Program Version 4.1.2  - RELEASE  -
|  1> !uks pbe nori aug-pc-4 grid5 nofinalgrid verytightscf
|  2>
|  3> %maxcore 1500
|  4>
|  5> %pal nprocs 4 end
|  6>
|  7> %scf
|  8> 	maxiter 200
|  9> end
| 10> %elprop
| 11> 	dipole true
| 12> 	 polar 1
| 13> 	 maxiter 200
| 14> end
| 15>
| 16> * xyz 0 2
| 17> B 0.0000 0.0000 0.0000
| 18> S 0.0000 0.0000 1.6092
| 19> *
| 20>
| 21>                          ****END OF INPUT****

CARTESIAN COORDINATES (ANGSTROEM)
---------------------------------
  B      0.000000    0.000000    0.000000
  S      0.000000    0.000000    1.609200

 Total Charge           Charge          ....    0
 Multiplicity           Mult            ....    2
 Number of Electrons    NEL             ....   21
 Basis Dimension        Dim             ....  286

ORBITAL ENERGIES
----------------
                 SPIN UP ORBITALS
  NO   OCC          E(Eh)            E(eV)
   0   1.0000     -88.043880     -2395.7958
   1   1.0000      -7.685490      -209.1328
   2   1.0000      -6.607556      -179.8008
   3   1.0000      -5.703318      -155.1952
   4   1.0000      -5.701294      -155.1401
   5   1.0000      -5.701294      -155.1401
   6   1.0000      -0.677123       -18.4254
   7   1.0000      -0.392635       -10.6842
   8   1.0000      -0.281175        -7.6511
   9   1.0000      -0.281175        -7.6511
  10   1.0000      -0.270243        -7.3537
  11   0.0000      -0.096092        -2.6148
  12   0.0000      -0.096092        -2.6148
  13   0.0000      -0.006384        -0.1737
  14   0.0000       0.004830         0.1314
  15   0.0000       0.010653         0.2899

                 SPIN DOWN ORBITALS
  NO   OCC          E(Eh)            E(eV)
   0   1.0000     -88.043670     -2395.7901
   1   1.0000      -7.685276      -209.1270
   2   1.0000      -6.593711      -179.4240
   3   1.0000      -5.701883      -155.1561
   4   1.0000      -5.701883      -155.1561
   5   1.0000      -5.701272      -155.1395
   6   1.0000      -0.672013       -18.2864
   7   1.0000      -0.375404       -10.2153
   8   1.0000      -0.277273        -7.5450
   9   1.0000      -0.277273        -7.5450
  10   0.0000      -0.173878        -4.7315
  11   0.0000      -0.066526        -1.8103
  12   0.0000      -0.066526        -1.8103
  13   0.0000      -0.000029        -0.0008
  14   0.0000       0.012900         0.3510

MULLIKEN ATOMIC CHARGES AND SPIN POPULATIONS
--------------------------------------------
   0 B :    0.038821    0.973844
   1 S :   -0.038821    0.026156
Sum of atomic charges         :    0.0000000

LOEWDIN ATOMIC CHARGES AND SPIN POPULATIONS
-------------------------------------------
   0 B :   -0.599589    0.820017
   1 S :    0.599589    0.179983

  Mayer bond orders larger than 0.1
B(  0-B ,  1-S ) :   2.3903

FINAL SINGLE POINT ENERGY      -422.794782080851

DIPOLE MOMENT
-------------
                                X             Y             Z
Electronic contribution:      0.00000      -0.00000      -1.15770
Nuclear contribution   :      0.00000       0.00000       0.89803
                        -----------------------------------------
Total Dipole Moment    :      0.00000      -0.00000      -0.25967
                        -----------------------------------------
Magnitude (a.u.)       :      0.25967
Magnitude (Debye)      :      0.66003

Rotational constants in cm-1:     0.000000     0.805269     0.805269
Rotational constants in MHz :     0.000000 24141.365299 24141.365299

                             ****ORCA TERMINATED NORMALLY****
TOTAL RUN TIME: 0 days 0 hours 13 minutes 59 seconds 631 msec
