                         Program Version 4.1.2  - RELEASE  -
|  1> !uks pbe nori aug-pc-4 grid5 nofinalgrid verytightscf
|  2>
|  3> %maxcore 1500
|  4>
|  5> %pal nprocs 4 end
|  6>
|  7> %scf
|  8> 	maxiter 200
|  9> end
| 10> %elprop
| 11> 	dipole true
| 12> 	 polar 1
| 13> 	 maxiter 200
| 14> end
| 15>
| 16> * xyz 0 1
| 17> C 0.0000 0.0000 0.6013
| 18> C 0.0000 0.0000 -0.6013
| 19> H 0.0000 0.0000 1.6644
| 20> H 0.0000 0.0000 -1.6644
| 21> *
| 22>
| 23>                          ****END OF INPUT****

CARTESIAN COORDINATES (ANGSTROEM)
---------------------------------
  C      0.000000    0.000000    0.601300
  C      0.000000    0.000000   -0.601300
  H      0.000000    0.000000    1.664400
  H      0.000000    0.000000   -1.664400

 Total Charge           Charge          ....    0
 Multiplicity           Mult            ....    1
 Number of Electrons    NEL             ....   14
 Basis Dimension        Dim             ....  466

ORBITAL ENERGIES
----------------
                 SPIN UP ORBITALS
  NO   OCC          E(Eh)            E(eV)
   0   1.0000      -9.895145      -269.2606
   1   1.0000      -9.892965      -269.2013
   2   1.0000      -0.683633       -18.6026
   3   1.0000      -0.516592       -14.0572
   4   1.0000      -0.448450       -12.2029
   5   1.0000      -0.264555        -7.1989
   6   1.0000      -0.264555        -7.1989
   7   0.0000      -0.015322        -0.4169
   8   0.0000      -0.015322        -0.4169
   9   0.0000      -0.006588        -0.1793
  10   0.0000       0.002235         0.0608
  11   0.0000       0.018164         0.4943

                 SPIN DOWN ORBITALS
  NO   OCC          E(Eh)            E(eV)
   0   1.0000      -9.895145      -269.2606
   1   1.0000      -9.892965      -269.2013
   2   1.0000      -0.683633       -18.6026
   3   1.0000      -0.516592       -14.0572
   4   1.0000      -0.448450       -12.2029
   5   1.0000      -0.264555        -7.1989
   6   1.0000      -0.264555        -7.1989
   7   0.0000      -0.015322        -0.4169
   8   0.0000      -0.015322        -0.4169
   9   0.0000      -0.006588        -0.1793
  10   0.0000       0.002235         0.0608
  11   0.0000       0.018164         0.4943

MULLIKEN ATOMIC CHARGES AND SPIN POPULATIONS
--------------------------------------------
   0 C :    0.054016    0.000000
   1 C :    0.054363   -0.000000
   2 H :   -0.053903    0.000000
   3 H :   -0.054476    0.000000
Sum of atomic charges         :    0.0000000

LOEWDIN ATOMIC CHARGES AND SPIN POPULATIONS
-------------------------------------------
   0 C :    0.517349    0.000000
   1 C :    0.517349   -0.000000
   2 H :   -0.517349    0.000000
   3 H :   -0.517349    0.000000

  Mayer bond orders larger than 0.1
B(  0-C ,  1-C ) :   2.8899 B(  0-C ,  2-H ) :   1.0987 B(  1-C ,  3-H ) :   1.0991

FINAL SINGLE POINT ENERGY       -77.258871092372

DIPOLE MOMENT
-------------
                                X             Y             Z
Electronic contribution:     -0.00000       0.00000      -0.00000
Nuclear contribution   :      0.00000       0.00000       0.00000
                        -----------------------------------------
Total Dipole Moment    :     -0.00000       0.00000      -0.00000
                        -----------------------------------------
Magnitude (a.u.)       :      0.00000
Magnitude (Debye)      :      0.00000

Rotational constants in cm-1:     0.000000     1.181317     1.181317
Rotational constants in MHz :     0.000000 35414.991350 35414.991350

                             ****ORCA TERMINATED NORMALLY****
TOTAL RUN TIME: 0 days 0 hours 39 minutes 49 seconds 580 msec
