                         Program Version 4.1.2  - RELEASE  -
|  1> !uks pbe nori aug-pc-4 grid5 nofinalgrid verytightscf
|  2>
|  3> %maxcore 1500
|  4>
|  5> %pal nprocs 4 end
|  6>
|  7> %scf
|  8> 	maxiter 200
|  9> end
| 10> %elprop
| 11> 	dipole true
| 12> 	 polar 1
| 13> 	 maxiter 200
| 14> end
| 15>
| 16> * xyz 0 2
| 17> C 0.0488 0.7245 0.0000
| 18> C 0.0488 -0.5915 0.0000
| 19> H -0.6836 1.5182 0.0000
| 20> H -0.8763 -1.1584 0.0000
| 21> H 0.9739 -1.1584 0.0000
| 22> *
| 23>
| 24>                          ****END OF INPUT****

CARTESIAN COORDINATES (ANGSTROEM)
---------------------------------
  C      0.048800    0.724500    0.000000
  C      0.048800   -0.591500    0.000000
  H     -0.683600    1.518200    0.000000
  H     -0.876300   -1.158400    0.000000
  H      0.973900   -1.158400    0.000000

 Total Charge           Charge          ....    0
 Multiplicity           Mult            ....    2
 Number of Electrons    NEL             ....   15
 Basis Dimension        Dim             ....  554

ORBITAL ENERGIES
----------------
                 SPIN UP ORBITALS
  NO   OCC          E(Eh)            E(eV)
   0   1.0000      -9.918205      -269.8881
   1   1.0000      -9.894858      -269.2528
   2   1.0000      -0.698642       -19.0110
   3   1.0000      -0.523575       -14.2472
   4   1.0000      -0.418927       -11.3996
   5   1.0000      -0.387078       -10.5329
   6   1.0000      -0.259775        -7.0688
   7   1.0000      -0.204077        -5.5532
   8   0.0000      -0.044037        -1.1983
   9   0.0000      -0.013107        -0.3567
  10   0.0000       0.001885         0.0513
  11   0.0000       0.008927         0.2429
  12   0.0000       0.016480         0.4485

                 SPIN DOWN ORBITALS
  NO   OCC          E(Eh)            E(eV)
   0   1.0000      -9.903842      -269.4972
   1   1.0000      -9.896103      -269.2867
   2   1.0000      -0.684449       -18.6248
   3   1.0000      -0.506050       -13.7703
   4   1.0000      -0.406748       -11.0682
   5   1.0000      -0.376109       -10.2345
   6   1.0000      -0.251812        -6.8521
   7   0.0000      -0.115917        -3.1542
   8   0.0000      -0.032892        -0.8950
   9   0.0000      -0.008681        -0.2362
  10   0.0000       0.005933         0.1614
  11   0.0000       0.015448         0.4204

MULLIKEN ATOMIC CHARGES AND SPIN POPULATIONS
--------------------------------------------
   0 C :   -0.078427    0.779762
   1 C :   -0.045570    0.029510
   2 H :    0.092473    0.096485
   3 H :   -0.000012    0.066087
   4 H :    0.031536    0.028156
Sum of atomic charges         :    0.0000000

LOEWDIN ATOMIC CHARGES AND SPIN POPULATIONS
-------------------------------------------
   0 C :    0.718330    0.570226
   1 C :    0.658509    0.152822
   2 H :   -0.463674    0.146559
   3 H :   -0.461050    0.067934
   4 H :   -0.452115    0.062459

  Mayer bond orders larger than 0.1
B(  0-C ,  1-C ) :   2.0326 B(  0-C ,  2-H ) :   0.9946 B(  0-C ,  3-H ) :   0.1175
B(  1-C ,  3-H ) :   0.9907 B(  1-C ,  4-H ) :   0.9833

FINAL SINGLE POINT ENERGY       -77.827430516256

DIPOLE MOMENT
-------------
                                X             Y             Z
Electronic contribution:      0.36732       0.68504      -0.00000
Nuclear contribution   :     -0.61029      -0.83170       0.00000
                        -----------------------------------------
Total Dipole Moment    :     -0.24298      -0.14666      -0.00000
                        -----------------------------------------
Magnitude (a.u.)       :      0.28381
Magnitude (Debye)      :      0.72138

Rotational constants in cm-1:     7.821103     1.080428     0.949290
Rotational constants in MHz : 234470.771346 32390.407658 28459.005900

                             ****ORCA TERMINATED NORMALLY****
TOTAL RUN TIME: 0 days 1 hours 30 minutes 30 seconds 764 msec
