                         Program Version 4.1.2  - RELEASE  -
|  1> !uks pbe nori aug-pc-4 grid5 nofinalgrid verytightscf
|  2>
|  3> %maxcore 1500
|  4>
|  5> %pal nprocs 4 end
|  6>
|  7> %scf
|  8> 	maxiter 200
|  9> end
| 10> %elprop
| 11> 	dipole true
| 12> 	 polar 1
| 13> 	 maxiter 200
| 14> end
| 15>
| 16> * xyz 0 2
| 17> C 0.0000 0.0000 0.0000
| 18> C 0.0000 0.0000 -1.2165
| 19> H 0.0000 0.0000 1.0465
| 20> *
| 21>
| 22>                          ****END OF INPUT****

CARTESIAN COORDINATES (ANGSTROEM)
---------------------------------
  C      0.000000    0.000000    0.000000
  C      0.000000    0.000000   -1.216500
  H      0.000000    0.000000    1.046500

 Total Charge           Charge          ....    0
 Multiplicity           Mult            ....    2
 Number of Electrons    NEL             ....   13
 Basis Dimension        Dim             ....  378

ORBITAL ENERGIES
----------------
                 SPIN UP ORBITALS
  NO   OCC          E(Eh)            E(eV)
   0   1.0000      -9.959909      -271.0229
   1   1.0000      -9.913217      -269.7524
   2   1.0000      -0.701661       -19.0932
   3   1.0000      -0.509827       -13.8731
   4   1.0000      -0.356868        -9.7109
   5   1.0000      -0.282662        -7.6916
   6   1.0000      -0.282662        -7.6916
   7   0.0000      -0.029798        -0.8108
   8   0.0000      -0.029798        -0.8108
   9   0.0000      -0.006094        -0.1658
  10   0.0000       0.006646         0.1808
  11   0.0000       0.018296         0.4979

                 SPIN DOWN ORBITALS
  NO   OCC          E(Eh)            E(eV)
   0   1.0000      -9.940544      -270.4960
   1   1.0000      -9.913214      -269.7523
   2   1.0000      -0.687281       -18.7019
   3   1.0000      -0.501778       -13.6541
   4   1.0000      -0.269247        -7.3266
   5   1.0000      -0.269247        -7.3266
   6   0.0000      -0.232155        -6.3173
   7   0.0000      -0.007727        -0.2103
   8   0.0000      -0.007727        -0.2103
   9   0.0000      -0.004816        -0.1310
  10   0.0000       0.011879         0.3232

MULLIKEN ATOMIC CHARGES AND SPIN POPULATIONS
--------------------------------------------
   0 C :   -0.047939   -0.008247
   1 C :    0.002785    0.972883
   2 H :    0.045154    0.035364
Sum of atomic charges         :    0.0000000

LOEWDIN ATOMIC CHARGES AND SPIN POPULATIONS
-------------------------------------------
   0 C :    0.331516    0.123134
   1 C :    0.312067    0.849825
   2 H :   -0.643583    0.027041

  Mayer bond orders larger than 0.1
B(  0-C ,  1-C ) :   2.8496 B(  0-C ,  2-H ) :   1.0278 B(  1-C ,  2-H ) :   0.1261

FINAL SINGLE POINT ENERGY       -76.538747362018

DIPOLE MOMENT
-------------
                                X             Y             Z
Electronic contribution:      0.00000       0.00000      -1.18993
Nuclear contribution   :      0.00000       0.00000       1.48993
                        -----------------------------------------
Total Dipole Moment    :      0.00000       0.00000       0.30000
                        -----------------------------------------
Magnitude (a.u.)       :      0.30000
Magnitude (Debye)      :      0.76254

Rotational constants in cm-1:     0.000000     1.461267     1.461267
Rotational constants in MHz :     0.000000 43807.678146 43807.678146

                             ****ORCA TERMINATED NORMALLY****
TOTAL RUN TIME: 0 days 0 hours 24 minutes 58 seconds 161 msec
