                         Program Version 4.1.2  - RELEASE  -
|  1> !uks pbe nori aug-pc-4 grid5 nofinalgrid verytightscf
|  2>
|  3> %maxcore 1500
|  4>
|  5> %pal nprocs 4 end
|  6>
|  7> %scf
|  8> 	maxiter 200
|  9> end
| 10> %elprop
| 11> 	dipole true
| 12> 	 polar 1
| 13> 	 maxiter 200
| 14> end
| 15>
| 16> * xyz 0 2
| 17> C -0.0287000000 0.6550000000 0.0000000000
| 18> F -0.0287000000 -0.6819000000 0.0000000000
| 19> H 0.2150000000 1.1036000000 0.9474000000
| 20> H 0.2150000000 1.1036000000 -0.9474000000
| 21> *
| 22>
| 23>                          ****END OF INPUT****

CARTESIAN COORDINATES (ANGSTROEM)
---------------------------------
  C     -0.028700    0.655000    0.000000
  F     -0.028700   -0.681900    0.000000
  H      0.215000    1.103600    0.947400
  H      0.215000    1.103600   -0.947400

 Total Charge           Charge          ....    0
 Multiplicity           Mult            ....    2
 Number of Electrons    NEL             ....   17
 Basis Dimension        Dim             ....  466

ORBITAL ENERGIES
----------------
                 SPIN UP ORBITALS
  NO   OCC          E(Eh)            E(eV)
   0   1.0000     -24.282233      -660.7531
   1   1.0000      -9.970455      -271.3099
   2   1.0000      -1.139395       -31.0045
   3   1.0000      -0.629037       -17.1170
   4   1.0000      -0.469610       -12.7787
   5   1.0000      -0.462749       -12.5920
   6   1.0000      -0.420328       -11.4377
   7   1.0000      -0.325005        -8.8438
   8   1.0000      -0.183664        -4.9977
   9   0.0000      -0.015809        -0.4302
  10   0.0000       0.001761         0.0479
  11   0.0000       0.011493         0.3127
  12   0.0000       0.014253         0.3878
  13   0.0000       0.037454         1.0192

                 SPIN DOWN ORBITALS
  NO   OCC          E(Eh)            E(eV)
   0   1.0000     -24.278305      -660.6463
   1   1.0000      -9.956890      -270.9408
   2   1.0000      -1.131320       -30.7848
   3   1.0000      -0.603716       -16.4280
   4   1.0000      -0.459977       -12.5166
   5   1.0000      -0.455189       -12.3863
   6   1.0000      -0.395713       -10.7679
   7   1.0000      -0.319834        -8.7031
   8   0.0000      -0.101149        -2.7524
   9   0.0000      -0.008164        -0.2222
  10   0.0000       0.007543         0.2053
  11   0.0000       0.014943         0.4066
  12   0.0000       0.024512         0.6670

MULLIKEN ATOMIC CHARGES AND SPIN POPULATIONS
--------------------------------------------
   0 C :    0.217595    0.997312
   1 F :   -0.346021    0.121155
   2 H :    0.064212   -0.059234
   3 H :    0.064213   -0.059233
Sum of atomic charges         :   -0.0000000

LOEWDIN ATOMIC CHARGES AND SPIN POPULATIONS
-------------------------------------------
   0 C :    0.555939    0.495449
   1 F :    0.303659    0.242233
   2 H :   -0.429799    0.131159
   3 H :   -0.429799    0.131159

  Mayer bond orders larger than 0.1
B(  0-C ,  1-F ) :   1.0336 B(  0-C ,  2-H ) :   1.0091 B(  0-C ,  3-H ) :   1.0091

FINAL SINGLE POINT ENERGY      -138.993198990986

DIPOLE MOMENT
-------------
                                X             Y             Z
Electronic contribution:     -0.27308      -2.36418      -0.00000
Nuclear contribution   :      0.44314       2.78488       0.00000
                        -----------------------------------------
Total Dipole Moment    :      0.17006       0.42070      -0.00000
                        -----------------------------------------
Magnitude (a.u.)       :      0.45377
Magnitude (Debye)      :      1.15339

Rotational constants in cm-1:     8.869277     1.033800     0.935247
Rotational constants in MHz : 265894.235339 30992.545247 28038.014202

                             ****ORCA TERMINATED NORMALLY****
TOTAL RUN TIME: 0 days 0 hours 44 minutes 6 seconds 935 msec
