                         Program Version 4.1.2  - RELEASE  -
|  1> !uks pbe nori aug-pc-4 grid5 nofinalgrid verytightscf
|  2>
|  3> %maxcore 1500
|  4>
|  5> %pal nprocs 4 end
|  6>
|  7> %scf
|  8> 	maxiter 200
|  9> end
| 10> %elprop
| 11> 	dipole true
| 12> 	 polar 1
| 13> 	 maxiter 200
| 14> end
| 15>
| 16> * xyz 0 1
| 17> C 0.0588 0 0.5875
| 18> N 0.0588 0 -0.6855
| 19> H -0.8621 0 1.1946
| 20> H 0.9977 0 1.1231
| 21> H -0.8995 0 -1.0438
| 22> *
| 23>
| 24>                          ****END OF INPUT****

CARTESIAN COORDINATES (ANGSTROEM)
---------------------------------
  C      0.058800    0.000000    0.587500
  N      0.058800    0.000000   -0.685500
  H     -0.862100    0.000000    1.194600
  H      0.997700    0.000000    1.123100
  H     -0.899500    0.000000   -1.043800

 Total Charge           Charge          ....    0
 Multiplicity           Mult            ....    1
 Number of Electrons    NEL             ....   16
 Basis Dimension        Dim             ....  554

ORBITAL ENERGIES
----------------
                 SPIN UP ORBITALS
  NO   OCC          E(Eh)            E(eV)
   0   1.0000     -13.986613      -380.5951
   1   1.0000      -9.933491      -270.3040
   2   1.0000      -0.829711       -22.5776
   3   1.0000      -0.566042       -15.4028
   4   1.0000      -0.453575       -12.3424
   5   1.0000      -0.386825       -10.5260
   6   1.0000      -0.306280        -8.3343
   7   1.0000      -0.232650        -6.3307
   8   0.0000      -0.067697        -1.8421
   9   0.0000      -0.018843        -0.5128
  10   0.0000       0.000977         0.0266
  11   0.0000       0.012634         0.3438
  12   0.0000       0.017501         0.4762

                 SPIN DOWN ORBITALS
  NO   OCC          E(Eh)            E(eV)
   0   1.0000     -13.986613      -380.5951
   1   1.0000      -9.933491      -270.3040
   2   1.0000      -0.829711       -22.5776
   3   1.0000      -0.566042       -15.4028
   4   1.0000      -0.453575       -12.3424
   5   1.0000      -0.386825       -10.5260
   6   1.0000      -0.306280        -8.3343
   7   1.0000      -0.232650        -6.3307
   8   0.0000      -0.067697        -1.8421
   9   0.0000      -0.018843        -0.5128
  10   0.0000       0.000977         0.0266
  11   0.0000       0.012634         0.3438
  12   0.0000       0.017501         0.4762

MULLIKEN ATOMIC CHARGES AND SPIN POPULATIONS
--------------------------------------------
   0 C :    0.160486   -0.000000
   1 N :   -0.349689    0.000000
   2 H :    0.004109   -0.000000
   3 H :    0.007220    0.000000
   4 H :    0.177874   -0.000000
Sum of atomic charges         :   -0.0000000

LOEWDIN ATOMIC CHARGES AND SPIN POPULATIONS
-------------------------------------------
   0 C :    0.646349   -0.000000
   1 N :    0.792310   -0.000000
   2 H :   -0.386071   -0.000000
   3 H :   -0.411283    0.000000
   4 H :   -0.641304    0.000000

  Mayer bond orders larger than 0.1
B(  0-C ,  1-N ) :   2.0760 B(  0-C ,  2-H ) :   0.9859 B(  0-C ,  3-H ) :   0.9813
B(  1-N ,  4-H ) :   0.9463

FINAL SINGLE POINT ENERGY       -94.555239703212

DIPOLE MOMENT
-------------
                                X             Y             Z
Electronic contribution:      0.27293       0.00000      -0.74989
Nuclear contribution   :     -0.79013       0.00000       1.31384
                        -----------------------------------------
Total Dipole Moment    :     -0.51720       0.00000       0.56395
                        -----------------------------------------
Magnitude (a.u.)       :      0.76520
Magnitude (Debye)      :      1.94499

Rotational constants in cm-1:     6.567152     1.158417     0.984717
Rotational constants in MHz : 196878.271853 34728.470441 29521.080331

                             ****ORCA TERMINATED NORMALLY****
TOTAL RUN TIME: 0 days 1 hours 19 minutes 10 seconds 403 msec
