                         Program Version 4.1.2  - RELEASE  -
|  1> !uks pbe nori aug-pc-4 grid5 nofinalgrid verytightscf
|  2>
|  3> %maxcore 1500
|  4>
|  5> %pal nprocs 4 end
|  6>
|  7> %scf
|  8> 	maxiter 200
|  9> end
| 10> %elprop
| 11> 	dipole true
| 12> 	 polar 1
| 13> 	 maxiter 200
| 14> end
| 15>
| 16> * xyz 0 1
| 17> P 0.0000000000 0.0000000000 0.0000000000
| 18> H 0.0000000000 0.0000000000 1.4183490000
| 19> C 1.6600864825 0.0000000000 -0.2063414550
| 20> H 2.3794407562 0.0000000000 0.6006795204
| 21> H 2.0634774886 0.0000000000 -1.2113161293
| 22> *
| 23>
| 24>                          ****END OF INPUT****

CARTESIAN COORDINATES (ANGSTROEM)
---------------------------------
  P      0.000000    0.000000    0.000000
  H      0.000000    0.000000    1.418349
  C      1.660086    0.000000   -0.206341
  H      2.379441    0.000000    0.600680
  H      2.063477    0.000000   -1.211316

 Total Charge           Charge          ....    0
 Multiplicity           Mult            ....    1
 Number of Electrons    NEL             ....   24
 Basis Dimension        Dim             ....  550

ORBITAL ENERGIES
----------------
                 SPIN UP ORBITALS
  NO   OCC          E(Eh)            E(eV)
   0   1.0000     -76.281986     -2075.7384
   1   1.0000      -9.910263      -269.6720
   2   1.0000      -6.302140      -171.4900
   3   1.0000      -4.519134      -122.9719
   4   1.0000      -4.517167      -122.9184
   5   1.0000      -4.512969      -122.8041
   6   1.0000      -0.662922       -18.0390
   7   1.0000      -0.509888       -13.8747
   8   1.0000      -0.405694       -11.0395
   9   1.0000      -0.338061        -9.1991
  10   1.0000      -0.251271        -6.8374
  11   1.0000      -0.249863        -6.7991
  12   0.0000      -0.102803        -2.7974
  13   0.0000      -0.025561        -0.6955
  14   0.0000      -0.001406        -0.0383
  15   0.0000       0.006090         0.1657
  16   0.0000       0.010956         0.2981

                 SPIN DOWN ORBITALS
  NO   OCC          E(Eh)            E(eV)
   0   1.0000     -76.281986     -2075.7384
   1   1.0000      -9.910263      -269.6720
   2   1.0000      -6.302140      -171.4900
   3   1.0000      -4.519134      -122.9719
   4   1.0000      -4.517167      -122.9184
   5   1.0000      -4.512969      -122.8041
   6   1.0000      -0.662922       -18.0390
   7   1.0000      -0.509888       -13.8747
   8   1.0000      -0.405694       -11.0395
   9   1.0000      -0.338061        -9.1991
  10   1.0000      -0.251271        -6.8374
  11   1.0000      -0.249863        -6.7991
  12   0.0000      -0.102803        -2.7974
  13   0.0000      -0.025561        -0.6955
  14   0.0000      -0.001406        -0.0383
  15   0.0000       0.006090         0.1657
  16   0.0000       0.010956         0.2981

MULLIKEN ATOMIC CHARGES AND SPIN POPULATIONS
--------------------------------------------
   0 P :   -0.258801    0.000000
   1 H :    0.116583    0.000000
   2 C :   -0.057276    0.000000
   3 H :    0.052694    0.000000
   4 H :    0.146801   -0.000000
Sum of atomic charges         :   -0.0000000

LOEWDIN ATOMIC CHARGES AND SPIN POPULATIONS
-------------------------------------------
   0 P :    1.714793    0.000000
   1 H :   -0.708421    0.000000
   2 C :    0.317826    0.000000
   3 H :   -0.658701    0.000000
   4 H :   -0.665497   -0.000000

  Mayer bond orders larger than 0.1
B(  0-P ,  1-H ) :   0.8153 B(  0-P ,  2-C ) :   1.8917 B(  0-P ,  3-H ) :   0.1643
B(  2-C ,  3-H ) :   1.0330 B(  2-C ,  4-H ) :   0.8706

FINAL SINGLE POINT ENERGY      -381.046226401552

DIPOLE MOMENT
-------------
                                X             Y             Z
Electronic contribution:     -2.82473      -0.00000      -0.68529
Nuclear contribution   :      3.14871       0.00000       0.82726
                        -----------------------------------------
Total Dipole Moment    :      0.32399      -0.00000       0.14198
                        -----------------------------------------
Magnitude (a.u.)       :      0.35373
Magnitude (Debye)      :      0.89911

Rotational constants in cm-1:     4.655134     0.546590     0.489155
Rotational constants in MHz : 139557.394477 16386.345020 14664.491331

                             ****ORCA TERMINATED NORMALLY****
TOTAL RUN TIME: 0 days 1 hours 44 minutes 20 seconds 828 msec
