                         Program Version 4.1.2  - RELEASE  -
|  1> !uks pbe nori aug-pc-4 grid5 nofinalgrid verytightscf
|  2>
|  3> %maxcore 1500
|  4>
|  5> %pal nprocs 4 end
|  6>
|  7> %scf
|  8> 	maxiter 200
|  9> end
| 10> %elprop
| 11> 	dipole true
| 12> 	 polar 1
| 13> 	 maxiter 200
| 14> end
| 15>
| 16> * xyz 0 1
| 17> C -0.0190572749 -0.6845195756 -0.0000000839
| 18> B -0.0207972952 0.8729523951 -0.0000000656
| 19> H 1.0512614815 -0.9395660726 0.0000010826
| 20> H -0.4362896177 -1.1431007759 0.8927422542
| 21> H -0.4362878975 -1.1431009662 -0.8927431359
| 22> H 0.0151838060 1.4835176231 -1.0228906497
| 23> H 0.0151867978 1.4835173722 1.0228905983
| 24> *
| 25>
| 26>                          ****END OF INPUT****

CARTESIAN COORDINATES (ANGSTROEM)
---------------------------------
  C     -0.019057   -0.684520   -0.000000
  B     -0.020797    0.872952   -0.000000
  H      1.051261   -0.939566    0.000001
  H     -0.436290   -1.143101    0.892742
  H     -0.436288   -1.143101   -0.892743
  H      0.015184    1.483518   -1.022891
  H      0.015187    1.483517    1.022891

 Total Charge           Charge          ....    0
 Multiplicity           Mult            ....    1
 Number of Electrons    NEL             ....   16
 Basis Dimension        Dim             ....  730

ORBITAL ENERGIES
----------------
                 SPIN UP ORBITALS
  NO   OCC          E(Eh)            E(eV)
   0   1.0000      -9.864281      -268.4207
   1   1.0000      -6.508249      -177.0984
   2   1.0000      -0.639059       -17.3897
   3   1.0000      -0.432209       -11.7610
   4   1.0000      -0.373521       -10.1640
   5   1.0000      -0.362930        -9.8758
   6   1.0000      -0.294371        -8.0102
   7   1.0000      -0.280147        -7.6232
   8   0.0000      -0.084364        -2.2957
   9   0.0000      -0.014083        -0.3832
  10   0.0000       0.006289         0.1711
  11   0.0000       0.007851         0.2136
  12   0.0000       0.010921         0.2972

                 SPIN DOWN ORBITALS
  NO   OCC          E(Eh)            E(eV)
   0   1.0000      -9.864281      -268.4207
   1   1.0000      -6.508249      -177.0984
   2   1.0000      -0.639059       -17.3897
   3   1.0000      -0.432209       -11.7610
   4   1.0000      -0.373521       -10.1640
   5   1.0000      -0.362930        -9.8758
   6   1.0000      -0.294371        -8.0102
   7   1.0000      -0.280147        -7.6232
   8   0.0000      -0.084364        -2.2957
   9   0.0000      -0.014083        -0.3832
  10   0.0000       0.006289         0.1711
  11   0.0000       0.007851         0.2136
  12   0.0000       0.010921         0.2972

MULLIKEN ATOMIC CHARGES AND SPIN POPULATIONS
--------------------------------------------
   0 C :   -0.348198   -0.000000
   1 B :    0.177710   -0.000000
   2 H :    0.156978    0.000000
   3 H :    0.059775   -0.000000
   4 H :    0.060144    0.000000
   5 H :   -0.053181    0.000000
   6 H :   -0.053227   -0.000000
Sum of atomic charges         :   -0.0000000

LOEWDIN ATOMIC CHARGES AND SPIN POPULATIONS
-------------------------------------------
   0 C :    0.880866   -0.000000
   1 B :    0.776228    0.000000
   2 H :   -0.406463    0.000000
   3 H :   -0.386301   -0.000000
   4 H :   -0.386301    0.000000
   5 H :   -0.239014    0.000000
   6 H :   -0.239014   -0.000000

  Mayer bond orders larger than 0.1
B(  0-C ,  1-B ) :   0.9048 B(  0-C ,  2-H ) :   0.8796 B(  0-C ,  3-H ) :   1.0737
B(  0-C ,  4-H ) :   1.0734 B(  1-B ,  5-H ) :   1.0145 B(  1-B ,  6-H ) :   1.0147

FINAL SINGLE POINT ENERGY       -65.853841525398

DIPOLE MOMENT
-------------
                                X             Y             Z
Electronic contribution:     -0.20693       0.75449      -0.00000
Nuclear contribution   :      0.24617      -1.03742       0.00000
                        -----------------------------------------
Total Dipole Moment    :      0.03924      -0.28293       0.00000
                        -----------------------------------------
Magnitude (a.u.)       :      0.28563
Magnitude (Debye)      :      0.72603

Rotational constants in cm-1:     3.228710     0.723532     0.660823
Rotational constants in MHz : 96794.286037 21690.947830 19810.964189

                             ****ORCA TERMINATED NORMALLY****
TOTAL RUN TIME: 0 days 3 hours 28 minutes 25 seconds 124 msec
