                         Program Version 4.1.2  - RELEASE  -
|  1> !uks pbe nori aug-pc-4 grid5 nofinalgrid verytightscf
|  2>
|  3> %maxcore 1500
|  4>
|  5> %pal nprocs 4 end
|  6>
|  7> %scf
|  8> 	maxiter 200
|  9> end
| 10> %elprop
| 11> 	dipole true
| 12> 	 polar 1
| 13> 	 maxiter 200
| 14> end
| 15>
| 16> * xyz 0 1
| 17> C 0.0000 0.0000 0.0000
| 18> Cl 0.0000 0.0000 1.7810
| 19> H 1.0424 0.0000 -0.3901
| 20> H -0.5212 0.9027 -0.3901
| 21> H -0.5212 -0.9027 -0.3901
| 22> *
| 23>
| 24>                          ****END OF INPUT****

CARTESIAN COORDINATES (ANGSTROEM)
---------------------------------
  C      0.000000    0.000000    0.000000
  Cl     0.000000    0.000000    1.781000
  H      1.042400    0.000000   -0.390100
  H     -0.521200    0.902700   -0.390100
  H     -0.521200   -0.902700   -0.390100

 Total Charge           Charge          ....    0
 Multiplicity           Mult            ....    1
 Number of Electrons    NEL             ....   26
 Basis Dimension        Dim             ....  550

ORBITAL ENERGIES
----------------
                 SPIN UP ORBITALS
  NO   OCC          E(Eh)            E(eV)
   0   1.0000    -100.645662     -2738.7077
   1   1.0000      -9.946261      -270.6515
   2   1.0000      -9.169297      -249.5093
   3   1.0000      -6.992401      -190.2729
   4   1.0000      -6.981608      -189.9792
   5   1.0000      -6.981608      -189.9792
   6   1.0000      -0.779349       -21.2072
   7   1.0000      -0.611202       -16.6317
   8   1.0000      -0.397314       -10.8115
   9   1.0000      -0.397312       -10.8114
  10   1.0000      -0.382586       -10.4107
  11   1.0000      -0.261167        -7.1067
  12   1.0000      -0.261167        -7.1067
  13   0.0000      -0.033121        -0.9013
  14   0.0000      -0.013116        -0.3569
  15   0.0000       0.010834         0.2948
  16   0.0000       0.010835         0.2948
  17   0.0000       0.020478         0.5572

                 SPIN DOWN ORBITALS
  NO   OCC          E(Eh)            E(eV)
   0   1.0000    -100.645662     -2738.7077
   1   1.0000      -9.946261      -270.6515
   2   1.0000      -9.169297      -249.5093
   3   1.0000      -6.992401      -190.2729
   4   1.0000      -6.981608      -189.9792
   5   1.0000      -6.981608      -189.9792
   6   1.0000      -0.779349       -21.2072
   7   1.0000      -0.611202       -16.6317
   8   1.0000      -0.397314       -10.8115
   9   1.0000      -0.397312       -10.8114
  10   1.0000      -0.382586       -10.4107
  11   1.0000      -0.261167        -7.1067
  12   1.0000      -0.261167        -7.1067
  13   0.0000      -0.033121        -0.9013
  14   0.0000      -0.013116        -0.3569
  15   0.0000       0.010834         0.2948
  16   0.0000       0.010835         0.2948
  17   0.0000       0.020478         0.5572

MULLIKEN ATOMIC CHARGES AND SPIN POPULATIONS
--------------------------------------------
   0 C :    0.184005   -0.000000
   1 Cl:   -0.320311   -0.000000
   2 H :    0.045710   -0.000000
   3 H :    0.045305    0.000000
   4 H :    0.045291   -0.000000
Sum of atomic charges         :    0.0000000

LOEWDIN ATOMIC CHARGES AND SPIN POPULATIONS
-------------------------------------------
   0 C :    0.344015   -0.000000
   1 Cl:    1.469022   -0.000000
   2 H :   -0.604317    0.000000
   3 H :   -0.604360    0.000000
   4 H :   -0.604360    0.000000

  Mayer bond orders larger than 0.1
B(  0-C ,  1-Cl) :   0.9398 B(  0-C ,  2-H ) :   0.9585 B(  0-C ,  3-H ) :   0.9588
B(  0-C ,  4-H ) :   0.9588 B(  1-Cl,  2-H ) :   0.1126 B(  1-Cl,  3-H ) :   0.1125
B(  1-Cl,  4-H ) :   0.1125

FINAL SINGLE POINT ENERGY      -499.910039099638

DIPOLE MOMENT
-------------
                                X             Y             Z
Electronic contribution:     -0.00001      -0.00000       4.57937
Nuclear contribution   :      0.00000       0.00000      -5.29535
                        -----------------------------------------
Total Dipole Moment    :     -0.00001      -0.00000      -0.71598
                        -----------------------------------------
Magnitude (a.u.)       :      0.71598
Magnitude (Debye)      :      1.81987

Rotational constants in cm-1:     5.130597     0.437695     0.437693
Rotational constants in MHz : 153811.427612 13121.774514 13121.718860

                             ****ORCA TERMINATED NORMALLY****
TOTAL RUN TIME: 0 days 1 hours 30 minutes 20 seconds 804 msec
