                         Program Version 4.1.2  - RELEASE  -
|  1> !uks pbe nori aug-pc-4 grid5 nofinalgrid verytightscf
|  2>
|  3> %maxcore 1500
|  4>
|  5> %pal nprocs 4 end
|  6>
|  7> %scf
|  8> 	maxiter 200
|  9> end
| 10> %elprop
| 11> 	dipole true
| 12> 	 polar 1
| 13> 	 maxiter 200
| 14> end
| 15>
| 16> * xyz 0 1
| 17> C 0.0000 0.0000 -0.6244
| 18> F 0.0000 0.0000 0.7402
| 19> H 0.0000 1.0245 -0.9718
| 20> H 0.8873 -0.5123 -0.9718
| 21> H -0.8873 -0.5123 -0.9718
| 22> *
| 23>
| 24>                          ****END OF INPUT****

CARTESIAN COORDINATES (ANGSTROEM)
---------------------------------
  C      0.000000    0.000000   -0.624400
  F      0.000000    0.000000    0.740200
  H      0.000000    1.024500   -0.971800
  H      0.887300   -0.512300   -0.971800
  H     -0.887300   -0.512300   -0.971800

 Total Charge           Charge          ....    0
 Multiplicity           Mult            ....    1
 Number of Electrons    NEL             ....   18
 Basis Dimension        Dim             ....  554

ORBITAL ENERGIES
----------------
                 SPIN UP ORBITALS
  NO   OCC          E(Eh)            E(eV)
   0   1.0000     -24.241622      -659.6481
   1   1.0000      -9.948387      -270.7094
   2   1.0000      -1.100243       -29.9391
   3   1.0000      -0.636303       -17.3147
   4   1.0000      -0.444599       -12.0981
   5   1.0000      -0.433290       -11.7904
   6   1.0000      -0.433282       -11.7902
   7   1.0000      -0.295371        -8.0375
   8   1.0000      -0.295366        -8.0373
   9   0.0000      -0.015687        -0.4269
  10   0.0000       0.002369         0.0645
  11   0.0000       0.013993         0.3808
  12   0.0000       0.013993         0.3808
  13   0.0000       0.035810         0.9744

                 SPIN DOWN ORBITALS
  NO   OCC          E(Eh)            E(eV)
   0   1.0000     -24.241622      -659.6481
   1   1.0000      -9.948387      -270.7094
   2   1.0000      -1.100243       -29.9391
   3   1.0000      -0.636303       -17.3147
   4   1.0000      -0.444599       -12.0981
   5   1.0000      -0.433290       -11.7904
   6   1.0000      -0.433282       -11.7902
   7   1.0000      -0.295371        -8.0375
   8   1.0000      -0.295366        -8.0373
   9   0.0000      -0.015687        -0.4269
  10   0.0000       0.002369         0.0645
  11   0.0000       0.013993         0.3808
  12   0.0000       0.013993         0.3808
  13   0.0000       0.035810         0.9744

MULLIKEN ATOMIC CHARGES AND SPIN POPULATIONS
--------------------------------------------
   0 C :    0.574271   -0.000000
   1 F :   -0.499082   -0.000000
   2 H :   -0.025616    0.000000
   3 H :   -0.024809   -0.000000
   4 H :   -0.024765    0.000000
Sum of atomic charges         :   -0.0000000

LOEWDIN ATOMIC CHARGES AND SPIN POPULATIONS
-------------------------------------------
   0 C :    0.663476   -0.000000
   1 F :    0.376205    0.000000
   2 H :   -0.346609    0.000000
   3 H :   -0.346536   -0.000000
   4 H :   -0.346536    0.000000

  Mayer bond orders larger than 0.1
B(  0-C ,  1-F ) :   0.7998 B(  0-C ,  2-H ) :   0.9758 B(  0-C ,  3-H ) :   0.9754
B(  0-C ,  4-H ) :   0.9754

FINAL SINGLE POINT ENERGY      -139.658048896634

DIPOLE MOMENT
-------------
                                X             Y             Z
Electronic contribution:     -0.00000       0.00010       2.97796
Nuclear contribution   :      0.00000      -0.00009      -3.62202
                        -----------------------------------------
Total Dipole Moment    :     -0.00000       0.00001      -0.64405
                        -----------------------------------------
Magnitude (a.u.)       :      0.64405
Magnitude (Debye)      :      1.63705

Rotational constants in cm-1:     5.310668     0.880351     0.880346
Rotational constants in MHz : 159209.828292 26392.246338 26392.107754

                             ****ORCA TERMINATED NORMALLY****
TOTAL RUN TIME: 0 days 1 hours 16 minutes 14 seconds 937 msec
