                         Program Version 4.1.2  - RELEASE  -
|  1> !uks pbe nori aug-pc-4 grid5 nofinalgrid verytightscf
|  2>
|  3> %maxcore 1500
|  4>
|  5> %pal nprocs 4 end
|  6>
|  7> %scf
|  8> 	maxiter 200
|  9> end
| 10> %elprop
| 11> 	dipole true
| 12> 	 polar 1
| 13> 	 maxiter 200
| 14> end
| 15>
| 16> * xyz 0 2
| 17> C 0.0000 0.0000 -0.5899
| 18> O 0.0000 0.0000 0.8151
| 19> H 0.0000 1.0360 -0.9938
| 20> H 0.8972 -0.5180 -0.9938
| 21> H -0.8972 -0.5180 -0.9938
| 22> *
| 23>
| 24>                          ****END OF INPUT****

CARTESIAN COORDINATES (ANGSTROEM)
---------------------------------
  C      0.000000    0.000000   -0.589900
  O      0.000000    0.000000    0.815100
  H      0.000000    1.036000   -0.993800
  H      0.897200   -0.518000   -0.993800
  H     -0.897200   -0.518000   -0.993800

 Total Charge           Charge          ....    0
 Multiplicity           Mult            ....    2
 Number of Electrons    NEL             ....   17
 Basis Dimension        Dim             ....  554

ORBITAL ENERGIES
----------------
                 SPIN UP ORBITALS
  NO   OCC          E(Eh)            E(eV)
   0   1.0000     -18.800279      -511.5816
   1   1.0000      -9.947593      -270.6878
   2   1.0000      -0.927946       -25.2507
   3   1.0000      -0.615096       -16.7376
   4   1.0000      -0.430954       -11.7269
   5   1.0000      -0.405980       -11.0473
   6   1.0000      -0.388182       -10.5630
   7   1.0000      -0.293930        -7.9982
   8   1.0000      -0.240685        -6.5494
   9   0.0000      -0.020658        -0.5621
  10   0.0000       0.005083         0.1383
  11   0.0000       0.010620         0.2890
  12   0.0000       0.012149         0.3306
  13   0.0000       0.032928         0.8960

                 SPIN DOWN ORBITALS
  NO   OCC          E(Eh)            E(eV)
   0   1.0000     -18.779166      -511.0071
   1   1.0000      -9.947883      -270.6957
   2   1.0000      -0.885955       -24.1081
   3   1.0000      -0.601993       -16.3811
   4   1.0000      -0.403948       -10.9920
   5   1.0000      -0.401579       -10.9275
   6   1.0000      -0.371006       -10.0956
   7   1.0000      -0.223380        -6.0785
   8   0.0000      -0.201027        -5.4702
   9   0.0000      -0.018468        -0.5025
  10   0.0000       0.007835         0.2132
  11   0.0000       0.012277         0.3341
  12   0.0000       0.012591         0.3426

MULLIKEN ATOMIC CHARGES AND SPIN POPULATIONS
--------------------------------------------
   0 C :    0.345250   -0.078500
   1 O :   -0.331852    0.902553
   2 H :   -0.024551    0.005954
   3 H :    0.005572    0.084995
   4 H :    0.005581    0.084998
Sum of atomic charges         :   -0.0000000

LOEWDIN ATOMIC CHARGES AND SPIN POPULATIONS
-------------------------------------------
   0 C :    0.624799    0.129506
   1 O :    0.498442    0.741444
   2 H :   -0.379321    0.027048
   3 H :   -0.371960    0.051000
   4 H :   -0.371960    0.051001

  Mayer bond orders larger than 0.1
B(  0-C ,  1-O ) :   1.0418 B(  0-C ,  2-H ) :   0.9891 B(  0-C ,  3-H ) :   0.9400
B(  0-C ,  4-H ) :   0.9400

FINAL SINGLE POINT ENERGY      -114.969737680188

DIPOLE MOMENT
-------------
                                X             Y             Z
Electronic contribution:     -0.00000      -0.06762       2.22204
Nuclear contribution   :      0.00000       0.00000      -3.05399
                        -----------------------------------------
Total Dipole Moment    :     -0.00000      -0.06762      -0.83196
                        -----------------------------------------
Magnitude (a.u.)       :      0.83470
Magnitude (Debye)      :      2.12164

Rotational constants in cm-1:     5.193938     0.880841     0.880841
Rotational constants in MHz : 155710.331212 26406.948819 26406.937247

                             ****ORCA TERMINATED NORMALLY****
TOTAL RUN TIME: 0 days 1 hours 43 minutes 32 seconds 709 msec
