                         Program Version 4.1.2  - RELEASE  -
|  1> !uks pbe nori aug-pc-4 grid5 nofinalgrid verytightscf
|  2>
|  3> %maxcore 1500
|  4>
|  5> %pal nprocs 4 end
|  6>
|  7> %scf
|  8> 	maxiter 200
|  9> end
| 10> %elprop
| 11> 	dipole true
| 12> 	 polar 1
| 13> 	 maxiter 200
| 14> end
| 15>
| 16> * xyz 0 1
| 17> C -0.0503 0.6685 0.0000
| 18> O -0.0503 -0.7585 0.0000
| 19> H -1.0807 1.0417 0.0000
| 20> H 0.4650 1.0417 0.8924
| 21> H 0.4650 1.0417 -0.8924
| 22> H 0.8544 -1.0677 0.0000
| 23> *
| 24>
| 25>                          ****END OF INPUT****

CARTESIAN COORDINATES (ANGSTROEM)
---------------------------------
  C     -0.050300    0.668500    0.000000
  O     -0.050300   -0.758500    0.000000
  H     -1.080700    1.041700    0.000000
  H      0.465000    1.041700    0.892400
  H      0.465000    1.041700   -0.892400
  H      0.854400   -1.067700    0.000000

 Total Charge           Charge          ....    0
 Multiplicity           Mult            ....    1
 Number of Electrons    NEL             ....   18
 Basis Dimension        Dim             ....  642

ORBITAL ENERGIES
----------------
                 SPIN UP ORBITALS
  NO   OCC          E(Eh)            E(eV)
   0   1.0000     -18.750376      -510.2237
   1   1.0000      -9.924758      -270.0664
   2   1.0000      -0.934153       -25.4196
   3   1.0000      -0.619715       -16.8633
   4   1.0000      -0.458807       -12.4848
   5   1.0000      -0.391879       -10.6636
   6   1.0000      -0.383908       -10.4467
   7   1.0000      -0.292760        -7.9664
   8   1.0000      -0.230145        -6.2626
   9   0.0000      -0.024984        -0.6799
  10   0.0000      -0.003839        -0.1045
  11   0.0000       0.013134         0.3574
  12   0.0000       0.013946         0.3795
  13   0.0000       0.028673         0.7802

                 SPIN DOWN ORBITALS
  NO   OCC          E(Eh)            E(eV)
   0   1.0000     -18.750376      -510.2237
   1   1.0000      -9.924758      -270.0664
   2   1.0000      -0.934153       -25.4196
   3   1.0000      -0.619715       -16.8633
   4   1.0000      -0.458807       -12.4848
   5   1.0000      -0.391879       -10.6636
   6   1.0000      -0.383908       -10.4467
   7   1.0000      -0.292760        -7.9664
   8   1.0000      -0.230145        -6.2626
   9   0.0000      -0.024984        -0.6799
  10   0.0000      -0.003839        -0.1045
  11   0.0000       0.013134         0.3574
  12   0.0000       0.013946         0.3795
  13   0.0000       0.028673         0.7802

MULLIKEN ATOMIC CHARGES AND SPIN POPULATIONS
--------------------------------------------
   0 C :    0.315621   -0.000000
   1 O :   -0.395369   -0.000000
   2 H :   -0.108861    0.000000
   3 H :    0.020456   -0.000000
   4 H :    0.020478    0.000000
   5 H :    0.147675    0.000000
Sum of atomic charges         :   -0.0000000

LOEWDIN ATOMIC CHARGES AND SPIN POPULATIONS
-------------------------------------------
   0 C :    0.811695   -0.000000
   1 O :    0.972904   -0.000000
   2 H :   -0.321382   -0.000000
   3 H :   -0.333721   -0.000000
   4 H :   -0.333721    0.000000
   5 H :   -0.795776    0.000000

  Mayer bond orders larger than 0.1
B(  0-C ,  1-O ) :   0.9312 B(  0-C ,  2-H ) :   1.0158 B(  0-C ,  3-H ) :   0.9899
B(  0-C ,  4-H ) :   0.9898 B(  1-O ,  5-H ) :   1.1038

FINAL SINGLE POINT ENERGY      -115.642178412228

DIPOLE MOMENT
-------------
                                X             Y             Z
Electronic contribution:     -0.22460      -1.80234      -0.00000
Nuclear contribution   :      0.74171       2.15791       0.00000
                        -----------------------------------------
Total Dipole Moment    :      0.51711       0.35557      -0.00000
                        -----------------------------------------
Magnitude (a.u.)       :      0.62756
Magnitude (Debye)      :      1.59513

Rotational constants in cm-1:     4.257682     0.821117     0.792238
Rotational constants in MHz : 127642.086878 24616.458466 23750.711082

                             ****ORCA TERMINATED NORMALLY****
TOTAL RUN TIME: 0 days 2 hours 23 minutes 53 seconds 512 msec
