                         Program Version 4.1.2  - RELEASE  -
|  1> !uks pbe nori aug-pc-4 grid5 nofinalgrid verytightscf
|  2>
|  3> %maxcore 1500
|  4>
|  5> %pal nprocs 4 end
|  6>
|  7> %scf
|  8> 	maxiter 200
|  9> end
| 10> %elprop
| 11> 	dipole true
| 12> 	 polar 1
| 13> 	 maxiter 200
| 14> end
| 15>
| 16> * xyz 0 1
| 17> C -0.8500 -0.0344 -0.2000
| 18> S 0.9000 -0.5125 -0.1219
| 19> H 1.4219 0.5781 0.4250
| 20> H -0.9406 0.8688 -0.8219
| 21> H -1.4219 -0.8688 -0.6469
| 22> H -1.2031 0.1656 0.8219
| 23> *
| 24>
| 25>                          ****END OF INPUT****

CARTESIAN COORDINATES (ANGSTROEM)
---------------------------------
  C     -0.850000   -0.034400   -0.200000
  S      0.900000   -0.512500   -0.121900
  H      1.421900    0.578100    0.425000
  H     -0.940600    0.868800   -0.821900
  H     -1.421900   -0.868800   -0.646900
  H     -1.203100    0.165600    0.821900

 Total Charge           Charge          ....    0
 Multiplicity           Mult            ....    1
 Number of Electrons    NEL             ....   26
 Basis Dimension        Dim             ....  638

ORBITAL ENERGIES
----------------
                 SPIN UP ORBITALS
  NO   OCC          E(Eh)            E(eV)
   0   1.0000     -88.025948     -2395.3078
   1   1.0000      -9.918335      -269.8916
   2   1.0000      -7.665865      -208.5988
   3   1.0000      -5.687239      -154.7576
   4   1.0000      -5.683260      -154.6494
   5   1.0000      -5.676402      -154.4628
   6   1.0000      -0.712359       -19.3843
   7   1.0000      -0.583999       -15.8914
   8   1.0000      -0.405891       -11.0448
   9   1.0000      -0.386128       -10.5071
  10   1.0000      -0.361765        -9.8441
  11   1.0000      -0.291840        -7.9414
  12   1.0000      -0.204304        -5.5594
  13   0.0000      -0.031675        -0.8619
  14   0.0000      -0.014076        -0.3830
  15   0.0000       0.006541         0.1780
  16   0.0000       0.010601         0.2885
  17   0.0000       0.012414         0.3378

                 SPIN DOWN ORBITALS
  NO   OCC          E(Eh)            E(eV)
   0   1.0000     -88.025948     -2395.3078
   1   1.0000      -9.918335      -269.8916
   2   1.0000      -7.665865      -208.5988
   3   1.0000      -5.687239      -154.7576
   4   1.0000      -5.683260      -154.6494
   5   1.0000      -5.676402      -154.4628
   6   1.0000      -0.712359       -19.3843
   7   1.0000      -0.583999       -15.8914
   8   1.0000      -0.405891       -11.0448
   9   1.0000      -0.386128       -10.5071
  10   1.0000      -0.361765        -9.8441
  11   1.0000      -0.291840        -7.9414
  12   1.0000      -0.204304        -5.5594
  13   0.0000      -0.031675        -0.8619
  14   0.0000      -0.014076        -0.3830
  15   0.0000       0.006541         0.1780
  16   0.0000       0.010601         0.2885
  17   0.0000       0.012414         0.3378

MULLIKEN ATOMIC CHARGES AND SPIN POPULATIONS
--------------------------------------------
   0 C :    0.043396    0.000000
   1 S :   -0.279980   -0.000000
   2 H :    0.085743    0.000000
   3 H :    0.048728    0.000000
   4 H :    0.052056   -0.000000
   5 H :    0.050057    0.000000
Sum of atomic charges         :    0.0000000

LOEWDIN ATOMIC CHARGES AND SPIN POPULATIONS
-------------------------------------------
   0 C :    0.476376    0.000000
   1 S :    2.007706   -0.000000
   2 H :   -0.773402   -0.000000
   3 H :   -0.576269    0.000000
   4 H :   -0.556380   -0.000000
   5 H :   -0.578031    0.000000

  Mayer bond orders larger than 0.1
B(  0-C ,  1-S ) :   0.9422 B(  0-C ,  3-H ) :   0.9799 B(  0-C ,  4-H ) :   0.9962
B(  0-C ,  5-H ) :   0.9790 B(  1-S ,  2-H ) :   1.1088

FINAL SINGLE POINT ENERGY      -438.512613414689

DIPOLE MOMENT
-------------
                                X             Y             Z
Electronic contribution:      2.84389      -1.56576      -0.20924
Nuclear contribution   :     -3.31327       1.95845       0.30116
                        -----------------------------------------
Total Dipole Moment    :     -0.46938       0.39269       0.09191
                        -----------------------------------------
Magnitude (a.u.)       :      0.61884
Magnitude (Debye)      :      1.57298

Rotational constants in cm-1:     3.407871     0.431194     0.413681
Rotational constants in MHz : 102165.403335 12926.878681 12401.844443

                             ****ORCA TERMINATED NORMALLY****
TOTAL RUN TIME: 0 days 2 hours 33 minutes 11 seconds 259 msec
