                         Program Version 4.1.2  - RELEASE  -
|  1> !uks pbe nori aug-pc-4 grid5 nofinalgrid verytightscf
|  2>
|  3> %maxcore 1500
|  4>
|  5> %pal nprocs 4 end
|  6>
|  7> %scf
|  8> 	maxiter 200
|  9> end
| 10> %elprop
| 11> 	dipole true
| 12> 	 polar 1
| 13> 	 maxiter 200
| 14> end
| 15>
| 16> * xyz 0 1
| 17> C 0.0000 0.0000 0.0000
| 18> H 0.6276 0.6276 0.6276
| 19> H 0.6276 -0.6276 -0.6276
| 20> H -0.6276 0.6276 -0.6276
| 21> H -0.6276 -0.6276 0.6276
| 22> *
| 23>
| 24>                          ****END OF INPUT****

CARTESIAN COORDINATES (ANGSTROEM)
---------------------------------
  C      0.000000    0.000000    0.000000
  H      0.627600    0.627600    0.627600
  H      0.627600   -0.627600   -0.627600
  H     -0.627600    0.627600   -0.627600
  H     -0.627600   -0.627600    0.627600

 Total Charge           Charge          ....    0
 Multiplicity           Mult            ....    1
 Number of Electrons    NEL             ....   10
 Basis Dimension        Dim             ....  497

ORBITAL ENERGIES
----------------
                 SPIN UP ORBITALS
  NO   OCC          E(Eh)            E(eV)
   0   1.0000      -9.862636      -268.3760
   1   1.0000      -0.627345       -17.0709
   2   1.0000      -0.347519        -9.4565
   3   1.0000      -0.347519        -9.4565
   4   1.0000      -0.347519        -9.4565
   5   0.0000      -0.014752        -0.4014
   6   0.0000       0.017465         0.4752
   7   0.0000       0.017465         0.4752
   8   0.0000       0.017465         0.4752
   9   0.0000       0.036611         0.9962

                 SPIN DOWN ORBITALS
  NO   OCC          E(Eh)            E(eV)
   0   1.0000      -9.862636      -268.3760
   1   1.0000      -0.627345       -17.0709
   2   1.0000      -0.347519        -9.4565
   3   1.0000      -0.347519        -9.4565
   4   1.0000      -0.347519        -9.4565
   5   0.0000      -0.014752        -0.4014
   6   0.0000       0.017465         0.4752
   7   0.0000       0.017465         0.4752
   8   0.0000       0.017465         0.4752
   9   0.0000       0.036611         0.9962

MULLIKEN ATOMIC CHARGES AND SPIN POPULATIONS
--------------------------------------------
   0 C :   -0.039573   -0.000000
   1 H :    0.009903   -0.000000
   2 H :    0.009894   -0.000000
   3 H :    0.009893    0.000000
   4 H :    0.009882    0.000000
Sum of atomic charges         :    0.0000000

LOEWDIN ATOMIC CHARGES AND SPIN POPULATIONS
-------------------------------------------
   0 C :    1.155819   -0.000000
   1 H :   -0.288955   -0.000000
   2 H :   -0.288955    0.000000
   3 H :   -0.288955    0.000000
   4 H :   -0.288955    0.000000

  Mayer bond orders larger than 0.1
B(  0-C ,  1-H ) :   0.9967 B(  0-C ,  2-H ) :   0.9968 B(  0-C ,  3-H ) :   0.9968
B(  0-C ,  4-H ) :   0.9968

FINAL SINGLE POINT ENERGY       -40.468101068639

DIPOLE MOMENT
-------------
                                X             Y             Z
Electronic contribution:     -0.00000      -0.00000       0.00000
Nuclear contribution   :      0.00000       0.00000       0.00000
                        -----------------------------------------
Total Dipole Moment    :     -0.00000      -0.00000       0.00000
                        -----------------------------------------
Magnitude (a.u.)       :      0.00000
Magnitude (Debye)      :      0.00000

Rotational constants in cm-1:     5.307384     5.307384     5.307384
Rotational constants in MHz : 159111.369944 159111.369944 159111.369944

                             ****ORCA TERMINATED NORMALLY****
TOTAL RUN TIME: 0 days 0 hours 33 minutes 11 seconds 164 msec
