                         Program Version 4.1.2  - RELEASE  -
|  1> !uks pbe nori aug-pc-4 grid5 nofinalgrid verytightscf
|  2>
|  3> %maxcore 1500
|  4>
|  5> %pal nprocs 4 end
|  6>
|  7> %scf
|  8> 	maxiter 200
|  9> end
| 10> %elprop
| 11> 	dipole true
| 12> 	 polar 1
| 13> 	 maxiter 200
| 14> end
| 15>
| 16> * xyz 0 1
| 17> Cl 0.0000 0.0000 0.0000
| 18> Cl 0.0000 0.0000 1.9879
| 19> *
| 20>
| 21>                          ****END OF INPUT****

CARTESIAN COORDINATES (ANGSTROEM)
---------------------------------
  Cl     0.000000    0.000000    0.000000
  Cl     0.000000    0.000000    1.987900

 Total Charge           Charge          ....    0
 Multiplicity           Mult            ....    1
 Number of Electrons    NEL             ....   34
 Basis Dimension        Dim             ....  282

ORBITAL ENERGIES
----------------
                 SPIN UP ORBITALS
  NO   OCC          E(Eh)            E(eV)
   0   1.0000    -100.706103     -2740.3524
   1   1.0000    -100.706103     -2740.3524
   2   1.0000      -9.226741      -251.0724
   3   1.0000      -9.226717      -251.0717
   4   1.0000      -7.053663      -191.9399
   5   1.0000      -7.053525      -191.9362
   6   1.0000      -7.037629      -191.5036
   7   1.0000      -7.037629      -191.5036
   8   1.0000      -7.037619      -191.5034
   9   1.0000      -7.037619      -191.5034
  10   1.0000      -0.862494       -23.4696
  11   1.0000      -0.702355       -19.1121
  12   1.0000      -0.441014       -12.0006
  13   1.0000      -0.367616       -10.0033
  14   1.0000      -0.367616       -10.0033
  15   1.0000      -0.268460        -7.3052
  16   1.0000      -0.268460        -7.3052
  17   0.0000      -0.155575        -4.2334
  18   0.0000      -0.004574        -0.1245
  19   0.0000       0.016372         0.4455
  20   0.0000       0.022377         0.6089
  21   0.0000       0.022377         0.6089

                 SPIN DOWN ORBITALS
  NO   OCC          E(Eh)            E(eV)
   0   1.0000    -100.706103     -2740.3524
   1   1.0000    -100.706103     -2740.3524
   2   1.0000      -9.226741      -251.0724
   3   1.0000      -9.226717      -251.0717
   4   1.0000      -7.053663      -191.9399
   5   1.0000      -7.053525      -191.9362
   6   1.0000      -7.037629      -191.5036
   7   1.0000      -7.037629      -191.5036
   8   1.0000      -7.037619      -191.5034
   9   1.0000      -7.037619      -191.5034
  10   1.0000      -0.862494       -23.4696
  11   1.0000      -0.702355       -19.1121
  12   1.0000      -0.441014       -12.0006
  13   1.0000      -0.367616       -10.0033
  14   1.0000      -0.367616       -10.0033
  15   1.0000      -0.268460        -7.3052
  16   1.0000      -0.268460        -7.3052
  17   0.0000      -0.155575        -4.2334
  18   0.0000      -0.004574        -0.1245
  19   0.0000       0.016372         0.4455
  20   0.0000       0.022377         0.6089
  21   0.0000       0.022377         0.6089

MULLIKEN ATOMIC CHARGES AND SPIN POPULATIONS
--------------------------------------------
   0 Cl:   -0.000000    0.000000
   1 Cl:    0.000000   -0.000000
Sum of atomic charges         :   -0.0000000

LOEWDIN ATOMIC CHARGES AND SPIN POPULATIONS
-------------------------------------------
   0 Cl:   -0.000000   -0.000000
   1 Cl:    0.000000    0.000000

  Mayer bond orders larger than 0.1
B(  0-Cl,  1-Cl) :   1.2458

FINAL SINGLE POINT ENERGY      -920.054121721605

DIPOLE MOMENT
-------------
                                X             Y             Z
Electronic contribution:      0.00000      -0.00000      -0.00000
Nuclear contribution   :      0.00000       0.00000       0.00000
                        -----------------------------------------
Total Dipole Moment    :      0.00000      -0.00000      -0.00000
                        -----------------------------------------
Magnitude (a.u.)       :      0.00000
Magnitude (Debye)      :      0.00000

Rotational constants in cm-1:     0.000000     0.240649     0.240649
Rotational constants in MHz :     0.000000  7214.488434  7214.488434

                             ****ORCA TERMINATED NORMALLY****
TOTAL RUN TIME: 0 days 0 hours 10 minutes 41 seconds 166 msec
