                         Program Version 4.1.2  - RELEASE  -
|  1> !uks pbe nori aug-pc-4 grid5 nofinalgrid verytightscf
|  2>
|  3> %maxcore 1500
|  4>
|  5> %pal nprocs 4 end
|  6>
|  7> %scf
|  8> 	maxiter 200
|  9> end
| 10> %elprop
| 11> 	dipole true
| 12> 	 polar 1
| 13> 	 maxiter 200
| 14> end
| 15>
| 16> * xyz 0 1
| 17> Cl 0.0000 0.0000 1.6290
| 18> C 0.0000 0.0000 0.0000
| 19> N 0.0000 0.0000 -1.1606
| 20> *
| 21>
| 22>                          ****END OF INPUT****

CARTESIAN COORDINATES (ANGSTROEM)
---------------------------------
  Cl     0.000000    0.000000    1.629000
  C      0.000000    0.000000    0.000000
  N      0.000000    0.000000   -1.160600

 Total Charge           Charge          ....    0
 Multiplicity           Mult            ....    1
 Number of Electrons    NEL             ....   30
 Basis Dimension        Dim             ....  431

ORBITAL ENERGIES
----------------
                 SPIN UP ORBITALS
  NO   OCC          E(Eh)            E(eV)
   0   1.0000    -100.739801     -2741.2694
   1   1.0000     -14.010375      -381.2417
   2   1.0000      -9.984453      -271.6908
   3   1.0000      -9.262233      -252.0382
   4   1.0000      -7.085886      -192.8168
   5   1.0000      -7.074402      -192.5043
   6   1.0000      -7.074402      -192.5043
   7   1.0000      -0.888215       -24.1696
   8   1.0000      -0.831390       -22.6233
   9   1.0000      -0.535938       -14.5836
  10   1.0000      -0.402030       -10.9398
  11   1.0000      -0.402030       -10.9398
  12   1.0000      -0.341608        -9.2956
  13   1.0000      -0.303414        -8.2563
  14   1.0000      -0.303414        -8.2563
  15   0.0000      -0.063595        -1.7305
  16   0.0000      -0.038392        -1.0447
  17   0.0000      -0.038392        -1.0447
  18   0.0000      -0.012812        -0.3486
  19   0.0000       0.012638         0.3439

                 SPIN DOWN ORBITALS
  NO   OCC          E(Eh)            E(eV)
   0   1.0000    -100.739801     -2741.2694
   1   1.0000     -14.010375      -381.2417
   2   1.0000      -9.984453      -271.6908
   3   1.0000      -9.262233      -252.0382
   4   1.0000      -7.085886      -192.8168
   5   1.0000      -7.074402      -192.5043
   6   1.0000      -7.074402      -192.5043
   7   1.0000      -0.888215       -24.1696
   8   1.0000      -0.831390       -22.6233
   9   1.0000      -0.535938       -14.5836
  10   1.0000      -0.402030       -10.9398
  11   1.0000      -0.402030       -10.9398
  12   1.0000      -0.341608        -9.2956
  13   1.0000      -0.303414        -8.2563
  14   1.0000      -0.303414        -8.2563
  15   0.0000      -0.063595        -1.7305
  16   0.0000      -0.038392        -1.0447
  17   0.0000      -0.038392        -1.0447
  18   0.0000      -0.012812        -0.3486
  19   0.0000       0.012638         0.3439

MULLIKEN ATOMIC CHARGES AND SPIN POPULATIONS
--------------------------------------------
   0 Cl:   -0.145052   -0.000000
   1 C :    0.090330    0.000000
   2 N :    0.054722    0.000000
Sum of atomic charges         :   -0.0000000

LOEWDIN ATOMIC CHARGES AND SPIN POPULATIONS
-------------------------------------------
   0 Cl:    1.060858   -0.000000
   1 C :   -0.922604    0.000000
   2 N :   -0.138253    0.000000

  Mayer bond orders larger than 0.1
B(  0-Cl,  1-C ) :   1.0091 B(  0-Cl,  2-N ) :   0.2665 B(  1-C ,  2-N ) :   2.8565

FINAL SINGLE POINT ENERGY      -552.798368260455

DIPOLE MOMENT
-------------
                                X             Y             Z
Electronic contribution:     -0.00000       0.00000       2.45241
Nuclear contribution   :      0.00000       0.00000      -1.29050
                        -----------------------------------------
Total Dipole Moment    :     -0.00000       0.00000       1.16191
                        -----------------------------------------
Magnitude (a.u.)       :      1.16191
Magnitude (Debye)      :      2.95335

Rotational constants in cm-1:     0.000000     0.198478     0.198478
Rotational constants in MHz :     0.000000  5950.231488  5950.231488

                             ****ORCA TERMINATED NORMALLY****
TOTAL RUN TIME: 0 days 0 hours 50 minutes 17 seconds 714 msec
