                         Program Version 4.1.2  - RELEASE  -
|  1> !uks pbe nori aug-pc-4 grid5 nofinalgrid verytightscf
|  2>
|  3> %maxcore 1500
|  4>
|  5> %pal nprocs 4 end
|  6>
|  7> %scf
|  8> 	maxiter 200
|  9> end
| 10> %elprop
| 11> 	dipole true
| 12> 	 polar 1
| 13> 	 maxiter 200
| 14> end
| 15>
| 16> * xyz 0 1
| 17> F 0.0000 0.0000 0.0000
| 18> Cl 0.0000 0.0000 1.6283
| 19> *
| 20>
| 21>                          ****END OF INPUT****

CARTESIAN COORDINATES (ANGSTROEM)
---------------------------------
  F      0.000000    0.000000    0.000000
  Cl     0.000000    0.000000    1.628300

 Total Charge           Charge          ....    0
 Multiplicity           Mult            ....    1
 Number of Electrons    NEL             ....   26
 Basis Dimension        Dim             ....  286

ORBITAL ENERGIES
----------------
                 SPIN UP ORBITALS
  NO   OCC          E(Eh)            E(eV)
   0   1.0000    -100.733888     -2741.1085
   1   1.0000     -24.315782      -661.6661
   2   1.0000      -9.251508      -251.7463
   3   1.0000      -7.081820      -192.7061
   4   1.0000      -7.061075      -192.1416
   5   1.0000      -7.061075      -192.1416
   6   1.0000      -1.149863       -31.2894
   7   1.0000      -0.765805       -20.8386
   8   1.0000      -0.501127       -13.6364
   9   1.0000      -0.432482       -11.7684
  10   1.0000      -0.432482       -11.7684
  11   1.0000      -0.288432        -7.8486
  12   1.0000      -0.288432        -7.8486
  13   0.0000      -0.163564        -4.4508
  14   0.0000      -0.005636        -0.1534
  15   0.0000       0.025056         0.6818
  16   0.0000       0.025056         0.6818
  17   0.0000       0.028100         0.7646

                 SPIN DOWN ORBITALS
  NO   OCC          E(Eh)            E(eV)
   0   1.0000    -100.733888     -2741.1085
   1   1.0000     -24.315782      -661.6661
   2   1.0000      -9.251508      -251.7463
   3   1.0000      -7.081820      -192.7061
   4   1.0000      -7.061075      -192.1416
   5   1.0000      -7.061075      -192.1416
   6   1.0000      -1.149863       -31.2894
   7   1.0000      -0.765805       -20.8386
   8   1.0000      -0.501127       -13.6364
   9   1.0000      -0.432482       -11.7684
  10   1.0000      -0.432482       -11.7684
  11   1.0000      -0.288432        -7.8486
  12   1.0000      -0.288432        -7.8486
  13   0.0000      -0.163564        -4.4508
  14   0.0000      -0.005636        -0.1534
  15   0.0000       0.025056         0.6818
  16   0.0000       0.025056         0.6818
  17   0.0000       0.028100         0.7646

MULLIKEN ATOMIC CHARGES AND SPIN POPULATIONS
--------------------------------------------
   0 F :   -0.084771   -0.000000
   1 Cl:    0.084771    0.000000
Sum of atomic charges         :    0.0000000

LOEWDIN ATOMIC CHARGES AND SPIN POPULATIONS
-------------------------------------------
   0 F :   -1.037491   -0.000000
   1 Cl:    1.037491    0.000000

  Mayer bond orders larger than 0.1
B(  0-F ,  1-Cl) :   1.0533

FINAL SINGLE POINT ENERGY      -559.766140201992

DIPOLE MOMENT
-------------
                                X             Y             Z
Electronic contribution:     -0.00000      -0.00000       0.06309
Nuclear contribution   :      0.00000       0.00000       0.21977
                        -----------------------------------------
Total Dipole Moment    :     -0.00000      -0.00000       0.28286
                        -----------------------------------------
Magnitude (a.u.)       :      0.28286
Magnitude (Debye)      :      0.71896

Rotational constants in cm-1:     0.000000     0.514012     0.514012
Rotational constants in MHz :     0.000000 15409.684402 15409.684402

                             ****ORCA TERMINATED NORMALLY****
TOTAL RUN TIME: 0 days 0 hours 9 minutes 53 seconds 101 msec
