                         Program Version 4.1.2  - RELEASE  -
|  1> !uks pbe nori aug-pc-4 grid5 nofinalgrid verytightscf
|  2>
|  3> %maxcore 1500
|  4>
|  5> %pal nprocs 4 end
|  6>
|  7> %scf
|  8> 	maxiter 200
|  9> end
| 10> %elprop
| 11> 	dipole true
| 12> 	 polar 1
| 13> 	 maxiter 200
| 14> end
| 15>
| 16> * xyz 0 2
| 17> N 0.0000 0.0000 0.0000
| 18> C 0.0000 0.0000 1.1718
| 19> *
| 20>
| 21>                          ****END OF INPUT****

CARTESIAN COORDINATES (ANGSTROEM)
---------------------------------
  N      0.000000    0.000000    0.000000
  C      0.000000    0.000000    1.171800

 Total Charge           Charge          ....    0
 Multiplicity           Mult            ....    2
 Number of Electrons    NEL             ....   13
 Basis Dimension        Dim             ....  290

ORBITAL ENERGIES
----------------
                 SPIN UP ORBITALS
  NO   OCC          E(Eh)            E(eV)
   0   1.0000     -14.054259      -382.4358
   1   1.0000     -10.003164      -272.1999
   2   1.0000      -0.878607       -23.9081
   3   1.0000      -0.448325       -12.1995
   4   1.0000      -0.357536        -9.7290
   5   1.0000      -0.353938        -9.6311
   6   1.0000      -0.353938        -9.6311
   7   0.0000      -0.059151        -1.6096
   8   0.0000      -0.059151        -1.6096
   9   0.0000      -0.001044        -0.0284
  10   0.0000       0.016277         0.4429
  11   0.0000       0.019251         0.5239

                 SPIN DOWN ORBITALS
  NO   OCC          E(Eh)            E(eV)
   0   1.0000     -14.049347      -382.3022
   1   1.0000      -9.989610      -271.8311
   2   1.0000      -0.860984       -23.4286
   3   1.0000      -0.399775       -10.8784
   4   1.0000      -0.345172        -9.3926
   5   1.0000      -0.345172        -9.3926
   6   0.0000      -0.281612        -7.6630
   7   0.0000      -0.036552        -0.9946
   8   0.0000      -0.036552        -0.9946
   9   0.0000       0.005827         0.1586
  10   0.0000       0.020116         0.5474

MULLIKEN ATOMIC CHARGES AND SPIN POPULATIONS
--------------------------------------------
   0 N :    0.058186    0.227357
   1 C :   -0.058186    0.772643
Sum of atomic charges         :    0.0000000

LOEWDIN ATOMIC CHARGES AND SPIN POPULATIONS
-------------------------------------------
   0 N :    0.022081    0.339221
   1 C :   -0.022081    0.660779

  Mayer bond orders larger than 0.1
B(  0-N ,  1-C ) :   3.0736

FINAL SINGLE POINT ENERGY       -92.649567450853

DIPOLE MOMENT
-------------
                                X             Y             Z
Electronic contribution:     -0.00000       0.00000       0.45731
Nuclear contribution   :      0.00000       0.00000      -0.00298
                        -----------------------------------------
Total Dipole Moment    :     -0.00000       0.00000       0.45433
                        -----------------------------------------
Magnitude (a.u.)       :      0.45433
Magnitude (Debye)      :      1.15482

Rotational constants in cm-1:     0.000000     1.898626     1.898626
Rotational constants in MHz :     0.000000 56919.389108 56919.389108

                             ****ORCA TERMINATED NORMALLY****
TOTAL RUN TIME: 0 days 0 hours 10 minutes 42 seconds 328 msec
