                         Program Version 4.1.2  - RELEASE  -
|  1> !uks pbe nori aug-pc-4 grid5 nofinalgrid verytightscf
|  2>
|  3> %maxcore 1500
|  4>
|  5> %pal nprocs 4 end
|  6>
|  7> %scf
|  8> 	maxiter 200
|  9> end
| 10> %elprop
| 11> 	dipole true
| 12> 	 polar 1
| 13> 	 maxiter 200
| 14> end
| 15>
| 16> * xyz 0 1
| 17> C 0.0000 0.0000 0.0000
| 18> O 0.0000 0.0000 1.1621
| 19> O 0.0000 0.0000 -1.1621
| 20> *
| 21>
| 22>                          ****END OF INPUT****

CARTESIAN COORDINATES (ANGSTROEM)
---------------------------------
  C      0.000000    0.000000    0.000000
  O      0.000000    0.000000    1.162100
  O      0.000000    0.000000   -1.162100

 Total Charge           Charge          ....    0
 Multiplicity           Mult            ....    1
 Number of Electrons    NEL             ....   22
 Basis Dimension        Dim             ....  435

ORBITAL ENERGIES
----------------
                 SPIN UP ORBITALS
  NO   OCC          E(Eh)            E(eV)
   0   1.0000     -18.831258      -512.4246
   1   1.0000     -18.831258      -512.4246
   2   1.0000     -10.059234      -273.7257
   3   1.0000      -1.072249       -29.1774
   4   1.0000      -1.035404       -28.1748
   5   1.0000      -0.506930       -13.7943
   6   1.0000      -0.468566       -12.7503
   7   1.0000      -0.468566       -12.7503
   8   1.0000      -0.466418       -12.6919
   9   1.0000      -0.333897        -9.0858
  10   1.0000      -0.333897        -9.0858
  11   0.0000      -0.034487        -0.9384
  12   0.0000      -0.012611        -0.3432
  13   0.0000      -0.012611        -0.3432
  14   0.0000       0.017026         0.4633
  15   0.0000       0.017088         0.4650

                 SPIN DOWN ORBITALS
  NO   OCC          E(Eh)            E(eV)
   0   1.0000     -18.831258      -512.4246
   1   1.0000     -18.831258      -512.4246
   2   1.0000     -10.059234      -273.7257
   3   1.0000      -1.072249       -29.1774
   4   1.0000      -1.035404       -28.1748
   5   1.0000      -0.506930       -13.7943
   6   1.0000      -0.468566       -12.7503
   7   1.0000      -0.468566       -12.7503
   8   1.0000      -0.466418       -12.6919
   9   1.0000      -0.333897        -9.0858
  10   1.0000      -0.333897        -9.0858
  11   0.0000      -0.034487        -0.9384
  12   0.0000      -0.012611        -0.3432
  13   0.0000      -0.012611        -0.3432
  14   0.0000       0.017026         0.4633
  15   0.0000       0.017088         0.4650

MULLIKEN ATOMIC CHARGES AND SPIN POPULATIONS
--------------------------------------------
   0 C :    0.194044   -0.000000
   1 O :   -0.097019    0.000000
   2 O :   -0.097025    0.000000
Sum of atomic charges         :    0.0000000

LOEWDIN ATOMIC CHARGES AND SPIN POPULATIONS
-------------------------------------------
   0 C :   -0.582737   -0.000000
   1 O :    0.291369    0.000000
   2 O :    0.291369    0.000000

  Mayer bond orders larger than 0.1
B(  0-C ,  1-O ) :   2.1259 B(  0-C ,  2-O ) :   2.1259 B(  1-O ,  2-O ) :   0.1905

FINAL SINGLE POINT ENERGY      -188.492345603008

DIPOLE MOMENT
-------------
                                X             Y             Z
Electronic contribution:      0.00000      -0.00000      -0.00000
Nuclear contribution   :      0.00000       0.00000       0.00000
                        -----------------------------------------
Total Dipole Moment    :      0.00000      -0.00000      -0.00000
                        -----------------------------------------
Magnitude (a.u.)       :      0.00000
Magnitude (Debye)      :      0.00000

Rotational constants in cm-1:     0.000000     0.390110     0.390110
Rotational constants in MHz :     0.000000 11695.203081 11695.203081

                             ****ORCA TERMINATED NORMALLY****
TOTAL RUN TIME: 0 days 0 hours 32 minutes 55 seconds 699 msec
