                         Program Version 4.1.2  - RELEASE  -
|  1> !uks pbe nori aug-pc-4 grid5 nofinalgrid verytightscf
|  2>
|  3> %maxcore 1500
|  4>
|  5> %pal nprocs 4 end
|  6>
|  7> %scf
|  8> 	maxiter 200
|  9> end
| 10> %elprop
| 11> 	dipole true
| 12> 	 polar 1
| 13> 	 maxiter 200
| 14> end
| 15>
| 16> * xyz 0 1
| 17> C 0.0000 0.0000 0.0000
| 18> O 0.0000 0.0000 1.1282
| 19> *
| 20>
| 21>                          ****END OF INPUT****

CARTESIAN COORDINATES (ANGSTROEM)
---------------------------------
  C      0.000000    0.000000    0.000000
  O      0.000000    0.000000    1.128200

 Total Charge           Charge          ....    0
 Multiplicity           Mult            ....    1
 Number of Electrons    NEL             ....   14
 Basis Dimension        Dim             ....  290

ORBITAL ENERGIES
----------------
                 SPIN UP ORBITALS
  NO   OCC          E(Eh)            E(eV)
   0   1.0000     -18.857621      -513.1420
   1   1.0000      -9.999759      -272.1073
   2   1.0000      -1.076786       -29.3008
   3   1.0000      -0.519227       -14.1289
   4   1.0000      -0.435896       -11.8613
   5   1.0000      -0.435896       -11.8613
   6   1.0000      -0.332235        -9.0406
   7   0.0000      -0.073862        -2.0099
   8   0.0000      -0.073862        -2.0099
   9   0.0000       0.001703         0.0463
  10   0.0000       0.019082         0.5192
  11   0.0000       0.021088         0.5738

                 SPIN DOWN ORBITALS
  NO   OCC          E(Eh)            E(eV)
   0   1.0000     -18.857621      -513.1420
   1   1.0000      -9.999759      -272.1073
   2   1.0000      -1.076786       -29.3008
   3   1.0000      -0.519227       -14.1289
   4   1.0000      -0.435896       -11.8613
   5   1.0000      -0.435896       -11.8613
   6   1.0000      -0.332235        -9.0406
   7   0.0000      -0.073862        -2.0099
   8   0.0000      -0.073862        -2.0099
   9   0.0000       0.001703         0.0463
  10   0.0000       0.019082         0.5192
  11   0.0000       0.021088         0.5738

MULLIKEN ATOMIC CHARGES AND SPIN POPULATIONS
--------------------------------------------
   0 C :   -0.087143   -0.000000
   1 O :    0.087143    0.000000
Sum of atomic charges         :    0.0000000

LOEWDIN ATOMIC CHARGES AND SPIN POPULATIONS
-------------------------------------------
   0 C :   -0.172623   -0.000000
   1 O :    0.172623    0.000000

  Mayer bond orders larger than 0.1
B(  0-C ,  1-O ) :   2.3061

FINAL SINGLE POINT ENERGY      -113.242583342578

DIPOLE MOMENT
-------------
                                X             Y             Z
Electronic contribution:      0.00000       0.00000       0.08096
Nuclear contribution   :      0.00000       0.00000       0.00715
                        -----------------------------------------
Total Dipole Moment    :      0.00000       0.00000       0.08811
                        -----------------------------------------
Magnitude (a.u.)       :      0.08811
Magnitude (Debye)      :      0.22397

Rotational constants in cm-1:     0.000000     1.930482     1.930482
Rotational constants in MHz :     0.000000 57874.402002 57874.402002

                             ****ORCA TERMINATED NORMALLY****
TOTAL RUN TIME: 0 days 0 hours 9 minutes 23 seconds 152 msec
