                         Program Version 4.1.2  - RELEASE  -
|  1> !uks pbe nori aug-pc-4 grid5 nofinalgrid verytightscf
|  2>
|  3> %maxcore 1500
|  4>
|  5> %pal nprocs 4 end
|  6>
|  7> %scf
|  8> 	maxiter 200
|  9> end
| 10> %elprop
| 11> 	dipole true
| 12> 	 polar 1
| 13> 	 maxiter 200
| 14> end
| 15>
| 16> * xyz 0 1
| 17> C 0.0000 0.0000 0.0000
| 18> S 0.0000 0.0000 1.5349
| 19> *
| 20>
| 21>                          ****END OF INPUT****

CARTESIAN COORDINATES (ANGSTROEM)
---------------------------------
  C      0.000000    0.000000    0.000000
  S      0.000000    0.000000    1.534900

 Total Charge           Charge          ....    0
 Multiplicity           Mult            ....    1
 Number of Electrons    NEL             ....   22
 Basis Dimension        Dim             ....  286

ORBITAL ENERGIES
----------------
                 SPIN UP ORBITALS
  NO   OCC          E(Eh)            E(eV)
   0   1.0000     -88.084248     -2396.8943
   1   1.0000      -9.982688      -271.6427
   2   1.0000      -7.727191      -210.2676
   3   1.0000      -5.744153      -156.3063
   4   1.0000      -5.744153      -156.3063
   5   1.0000      -5.742316      -156.2564
   6   1.0000      -0.767533       -20.8856
   7   1.0000      -0.479145       -13.0382
   8   1.0000      -0.328200        -8.9308
   9   1.0000      -0.328200        -8.9308
  10   1.0000      -0.271284        -7.3820
  11   0.0000      -0.125929        -3.4267
  12   0.0000      -0.125929        -3.4267
  13   0.0000      -0.009597        -0.2611
  14   0.0000       0.001118         0.0304
  15   0.0000       0.015928         0.4334

                 SPIN DOWN ORBITALS
  NO   OCC          E(Eh)            E(eV)
   0   1.0000     -88.084248     -2396.8943
   1   1.0000      -9.982688      -271.6427
   2   1.0000      -7.727191      -210.2676
   3   1.0000      -5.744153      -156.3063
   4   1.0000      -5.744153      -156.3063
   5   1.0000      -5.742316      -156.2564
   6   1.0000      -0.767533       -20.8856
   7   1.0000      -0.479145       -13.0382
   8   1.0000      -0.328200        -8.9308
   9   1.0000      -0.328200        -8.9308
  10   1.0000      -0.271284        -7.3820
  11   0.0000      -0.125929        -3.4267
  12   0.0000      -0.125929        -3.4267
  13   0.0000      -0.009597        -0.2611
  14   0.0000       0.001118         0.0304
  15   0.0000       0.015928         0.4334

MULLIKEN ATOMIC CHARGES AND SPIN POPULATIONS
--------------------------------------------
   0 C :   -0.036073    0.000000
   1 S :    0.036073   -0.000000
Sum of atomic charges         :   -0.0000000

LOEWDIN ATOMIC CHARGES AND SPIN POPULATIONS
-------------------------------------------
   0 C :   -0.803132   -0.000000
   1 S :    0.803132    0.000000

  Mayer bond orders larger than 0.1
B(  0-C ,  1-S ) :   2.5568

FINAL SINGLE POINT ENERGY      -436.037755307566

DIPOLE MOMENT
-------------
                                X             Y             Z
Electronic contribution:      0.00000       0.00000       0.80248
Nuclear contribution   :      0.00000       0.00000      -0.01211
                        -----------------------------------------
Total Dipole Moment    :      0.00000       0.00000       0.79037
                        -----------------------------------------
Magnitude (a.u.)       :      0.79037
Magnitude (Debye)      :      2.00896

Rotational constants in cm-1:     0.000000     0.818930     0.818930
Rotational constants in MHz :     0.000000 24550.913255 24550.913255

                             ****ORCA TERMINATED NORMALLY****
TOTAL RUN TIME: 0 days 0 hours 12 minutes 45 seconds 627 msec
