                         Program Version 4.1.2  - RELEASE  -
|  1> !uks pbe nori aug-pc-4 grid5 nofinalgrid verytightscf
|  2>
|  3> %maxcore 1500
|  4>
|  5> %pal nprocs 4 end
|  6>
|  7> %scf
|  8> 	maxiter 200
|  9> end
| 10> %elprop
| 11> 	dipole true
| 12> 	 polar 1
| 13> 	 maxiter 200
| 14> end
| 15>
| 16> * xyz 0 1
| 17> C 0.0000 0.0000 0.0000
| 18> O 0.0000 0.0000 1.1600
| 19> S 0.0000 0.0000 -1.5600
| 20> *
| 21>
| 22>                          ****END OF INPUT****

CARTESIAN COORDINATES (ANGSTROEM)
---------------------------------
  C      0.000000    0.000000    0.000000
  O      0.000000    0.000000    1.160000
  S      0.000000    0.000000   -1.560000

 Total Charge           Charge          ....    0
 Multiplicity           Mult            ....    1
 Number of Electrons    NEL             ....   30
 Basis Dimension        Dim             ....  431

ORBITAL ENERGIES
----------------
                 SPIN UP ORBITALS
  NO   OCC          E(Eh)            E(eV)
   0   1.0000     -88.067331     -2396.4339
   1   1.0000     -18.832880      -512.4687
   2   1.0000     -10.034312      -273.0475
   3   1.0000      -7.707614      -209.7349
   4   1.0000      -5.728301      -155.8750
   5   1.0000      -5.722013      -155.7039
   6   1.0000      -5.722013      -155.7039
   7   1.0000      -1.050031       -28.5728
   8   1.0000      -0.754354       -20.5270
   9   1.0000      -0.494077       -13.4445
  10   1.0000      -0.430610       -11.7175
  11   1.0000      -0.430610       -11.7175
  12   1.0000      -0.427994       -11.6463
  13   1.0000      -0.275165        -7.4876
  14   1.0000      -0.275165        -7.4876
  15   0.0000      -0.071989        -1.9589
  16   0.0000      -0.071989        -1.9589
  17   0.0000      -0.025134        -0.6839
  18   0.0000       0.005312         0.1445
  19   0.0000       0.015971         0.4346

                 SPIN DOWN ORBITALS
  NO   OCC          E(Eh)            E(eV)
   0   1.0000     -88.067331     -2396.4339
   1   1.0000     -18.832880      -512.4687
   2   1.0000     -10.034312      -273.0475
   3   1.0000      -7.707614      -209.7349
   4   1.0000      -5.728301      -155.8750
   5   1.0000      -5.722013      -155.7039
   6   1.0000      -5.722013      -155.7039
   7   1.0000      -1.050031       -28.5728
   8   1.0000      -0.754354       -20.5270
   9   1.0000      -0.494077       -13.4445
  10   1.0000      -0.430610       -11.7175
  11   1.0000      -0.430610       -11.7175
  12   1.0000      -0.427994       -11.6463
  13   1.0000      -0.275165        -7.4876
  14   1.0000      -0.275165        -7.4876
  15   0.0000      -0.071989        -1.9589
  16   0.0000      -0.071989        -1.9589
  17   0.0000      -0.025134        -0.6839
  18   0.0000       0.005312         0.1445
  19   0.0000       0.015971         0.4346

MULLIKEN ATOMIC CHARGES AND SPIN POPULATIONS
--------------------------------------------
   0 C :    0.172851   -0.000000
   1 O :   -0.015016    0.000000
   2 S :   -0.157835    0.000000
Sum of atomic charges         :    0.0000000

LOEWDIN ATOMIC CHARGES AND SPIN POPULATIONS
-------------------------------------------
   0 C :   -1.071213   -0.000000
   1 O :   -0.014573   -0.000000
   2 S :    1.085786    0.000000

  Mayer bond orders larger than 0.1
B(  0-C ,  1-O ) :   2.0608 B(  0-C ,  2-S ) :   2.0132 B(  1-O ,  2-S ) :   0.2255

FINAL SINGLE POINT ENERGY      -511.339627940708

DIPOLE MOMENT
-------------
                                X             Y             Z
Electronic contribution:     -0.00000       0.00000      -0.35504
Nuclear contribution   :      0.00000       0.00000       0.05490
                        -----------------------------------------
Total Dipole Moment    :     -0.00000       0.00000      -0.30014
                        -----------------------------------------
Magnitude (a.u.)       :      0.30014
Magnitude (Debye)      :      0.76290

Rotational constants in cm-1:     0.000000     0.202912     0.202912
Rotational constants in MHz :     0.000000  6083.144754  6083.144754

                             ****ORCA TERMINATED NORMALLY****
TOTAL RUN TIME: 0 days 0 hours 52 minutes 12 seconds 679 msec
