                         Program Version 4.1.2  - RELEASE  -
|  1> !uks pbe nori aug-pc-4 grid5 nofinalgrid verytightscf
|  2>
|  3> %maxcore 1500
|  4>
|  5> %pal nprocs 4 end
|  6>
|  7> %scf
|  8> 	maxiter 200
|  9> end
| 10> %elprop
| 11> 	dipole true
| 12> 	 polar 1
| 13> 	 maxiter 200
| 14> end
| 15>
| 16> * xyz 0 1
| 17> F 0.0000 0.0000 0.0000
| 18> F 0.0000 0.0000 1.4119
| 19> *
| 20>
| 21>                          ****END OF INPUT****

CARTESIAN COORDINATES (ANGSTROEM)
---------------------------------
  F      0.000000    0.000000    0.000000
  F      0.000000    0.000000    1.411900

 Total Charge           Charge          ....    0
 Multiplicity           Mult            ....    1
 Number of Electrons    NEL             ....   18
 Basis Dimension        Dim             ....  290

ORBITAL ENERGIES
----------------
                 SPIN UP ORBITALS
  NO   OCC          E(Eh)            E(eV)
   0   1.0000     -24.363484      -662.9641
   1   1.0000     -24.363483      -662.9641
   2   1.0000      -1.247300       -33.9408
   3   1.0000      -1.015393       -27.6303
   4   1.0000      -0.567141       -15.4327
   5   1.0000      -0.472141       -12.8476
   6   1.0000      -0.472141       -12.8476
   7   1.0000      -0.347410        -9.4535
   8   1.0000      -0.347410        -9.4535
   9   0.0000      -0.213237        -5.8025
  10   0.0000       0.022099         0.6014
  11   0.0000       0.033241         0.9045
  12   0.0000       0.042401         1.1538
  13   0.0000       0.042401         1.1538

                 SPIN DOWN ORBITALS
  NO   OCC          E(Eh)            E(eV)
   0   1.0000     -24.363484      -662.9641
   1   1.0000     -24.363483      -662.9641
   2   1.0000      -1.247300       -33.9408
   3   1.0000      -1.015393       -27.6303
   4   1.0000      -0.567141       -15.4327
   5   1.0000      -0.472141       -12.8476
   6   1.0000      -0.472141       -12.8476
   7   1.0000      -0.347410        -9.4535
   8   1.0000      -0.347410        -9.4535
   9   0.0000      -0.213237        -5.8025
  10   0.0000       0.022099         0.6014
  11   0.0000       0.033241         0.9045
  12   0.0000       0.042401         1.1538
  13   0.0000       0.042401         1.1538

MULLIKEN ATOMIC CHARGES AND SPIN POPULATIONS
--------------------------------------------
   0 F :    0.000001   -0.000000
   1 F :   -0.000001    0.000000
Sum of atomic charges         :   -0.0000000

LOEWDIN ATOMIC CHARGES AND SPIN POPULATIONS
-------------------------------------------
   0 F :    0.000000   -0.000000
   1 F :   -0.000000    0.000000

  Mayer bond orders larger than 0.1
B(  0-F ,  1-F ) :   0.9734

FINAL SINGLE POINT ENERGY      -199.436623196460

DIPOLE MOMENT
-------------
                                X             Y             Z
Electronic contribution:      0.00000       0.00000      -0.00000
Nuclear contribution   :      0.00000       0.00000      -0.00000
                        -----------------------------------------
Total Dipole Moment    :      0.00000       0.00000      -0.00000
                        -----------------------------------------
Magnitude (a.u.)       :      0.00000
Magnitude (Debye)      :      0.00000

Rotational constants in cm-1:     0.000000     0.890248     0.890248
Rotational constants in MHz :     0.000000 26688.971617 26688.971617

                             ****ORCA TERMINATED NORMALLY****
TOTAL RUN TIME: 0 days 0 hours 6 minutes 29 seconds 2 msec
