                         Program Version 4.1.2  - RELEASE  -
|  1> !uks pbe nori aug-pc-4 grid5 nofinalgrid verytightscf
|  2>
|  3> %maxcore 1500
|  4>
|  5> %pal nprocs 4 end
|  6>
|  7> %scf
|  8> 	maxiter 200
|  9> end
| 10> %elprop
| 11> 	dipole true
| 12> 	 polar 1
| 13> 	 maxiter 200
| 14> end
| 15>
| 16> * xyz 0 1
| 17> C 0.0000 0.0000 0.0000
| 18> F 0.0000 0.0000 -1.2620
| 19> N 0.0000 0.0000 1.1590
| 20> *
| 21>
| 22>                          ****END OF INPUT****

CARTESIAN COORDINATES (ANGSTROEM)
---------------------------------
  C      0.000000    0.000000    0.000000
  F      0.000000    0.000000   -1.262000
  N      0.000000    0.000000    1.159000

 Total Charge           Charge          ....    0
 Multiplicity           Mult            ....    1
 Number of Electrons    NEL             ....   22
 Basis Dimension        Dim             ....  435

ORBITAL ENERGIES
----------------
                 SPIN UP ORBITALS
  NO   OCC          E(Eh)            E(eV)
   0   1.0000     -24.387672      -663.6223
   1   1.0000     -14.014062      -381.3420
   2   1.0000     -10.024949      -272.7927
   3   1.0000      -1.255731       -34.1702
   4   1.0000      -0.859995       -23.4016
   5   1.0000      -0.635354       -17.2888
   6   1.0000      -0.512336       -13.9414
   7   1.0000      -0.512336       -13.9414
   8   1.0000      -0.350756        -9.5446
   9   1.0000      -0.320605        -8.7241
  10   1.0000      -0.320605        -8.7241
  11   0.0000      -0.056733        -1.5438
  12   0.0000      -0.009183        -0.2499
  13   0.0000      -0.009183        -0.2499
  14   0.0000       0.016563         0.4507
  15   0.0000       0.016563         0.4507

                 SPIN DOWN ORBITALS
  NO   OCC          E(Eh)            E(eV)
   0   1.0000     -24.387672      -663.6223
   1   1.0000     -14.014062      -381.3420
   2   1.0000     -10.024949      -272.7927
   3   1.0000      -1.255731       -34.1702
   4   1.0000      -0.859995       -23.4016
   5   1.0000      -0.635354       -17.2888
   6   1.0000      -0.512336       -13.9414
   7   1.0000      -0.512336       -13.9414
   8   1.0000      -0.350756        -9.5446
   9   1.0000      -0.320605        -8.7241
  10   1.0000      -0.320605        -8.7241
  11   0.0000      -0.056733        -1.5438
  12   0.0000      -0.009183        -0.2499
  13   0.0000      -0.009183        -0.2499
  14   0.0000       0.016563         0.4507
  15   0.0000       0.016563         0.4507

MULLIKEN ATOMIC CHARGES AND SPIN POPULATIONS
--------------------------------------------
   0 C :    0.196836   -0.000000
   1 F :   -0.271434    0.000000
   2 N :    0.074598    0.000000
Sum of atomic charges         :   -0.0000000

LOEWDIN ATOMIC CHARGES AND SPIN POPULATIONS
-------------------------------------------
   0 C :   -0.411624   -0.000000
   1 F :    0.250702    0.000000
   2 N :    0.160922    0.000000

  Mayer bond orders larger than 0.1
B(  0-C ,  1-F ) :   1.0824 B(  0-C ,  2-N ) :   2.8259 B(  1-F ,  2-N ) :   0.2098

FINAL SINGLE POINT ENERGY      -192.536664045807

DIPOLE MOMENT
-------------
                                X             Y             Z
Electronic contribution:     -0.00000      -0.00000      -1.93117
Nuclear contribution   :      0.00000       0.00000       1.01728
                        -----------------------------------------
Total Dipole Moment    :     -0.00000      -0.00000      -0.91389
                        -----------------------------------------
Magnitude (a.u.)       :      0.91389
Magnitude (Debye)      :      2.32292

Rotational constants in cm-1:     0.000000     0.353105     0.353105
Rotational constants in MHz :     0.000000 10585.833831 10585.833831

                             ****ORCA TERMINATED NORMALLY****
TOTAL RUN TIME: 0 days 0 hours 38 minutes 48 seconds 976 msec
