                         Program Version 4.1.2  - RELEASE  -
|  1> !uks pbe nori aug-pc-4 grid5 nofinalgrid verytightscf
|  2>
|  3> %maxcore 1500
|  4>
|  5> %pal nprocs 4 end
|  6>
|  7> %scf
|  8> 	maxiter 200
|  9> end
| 10> %elprop
| 11> 	dipole true
| 12> 	 polar 1
| 13> 	 maxiter 200
| 14> end
| 15>
| 16> * xyz 0 2
| 17> F -1.0211 -0.4211 0.0000
| 18> C 0.0000 0.4249 0.0000
| 19> O 1.1487 0.1550 0.0000
| 20> *
| 21>
| 22>                          ****END OF INPUT****

CARTESIAN COORDINATES (ANGSTROEM)
---------------------------------
  F     -1.021100   -0.421100    0.000000
  C      0.000000    0.424900    0.000000
  O      1.148700    0.155000    0.000000

 Total Charge           Charge          ....    0
 Multiplicity           Mult            ....    2
 Number of Electrons    NEL             ....   23
 Basis Dimension        Dim             ....  435

ORBITAL ENERGIES
----------------
                 SPIN UP ORBITALS
  NO   OCC          E(Eh)            E(eV)
   0   1.0000     -24.340954      -662.3510
   1   1.0000     -18.830105      -512.3932
   2   1.0000     -10.074588      -274.1435
   3   1.0000      -1.202569       -32.7236
   4   1.0000      -1.037647       -28.2358
   5   1.0000      -0.610023       -16.5996
   6   1.0000      -0.485630       -13.2147
   7   1.0000      -0.484757       -13.1909
   8   1.0000      -0.482819       -13.1382
   9   1.0000      -0.381727       -10.3873
  10   1.0000      -0.369276       -10.0485
  11   1.0000      -0.242072        -6.5871
  12   0.0000      -0.091911        -2.5010
  13   0.0000      -0.007695        -0.2094
  14   0.0000       0.011634         0.3166
  15   0.0000       0.014441         0.3930
  16   0.0000       0.014492         0.3943

                 SPIN DOWN ORBITALS
  NO   OCC          E(Eh)            E(eV)
   0   1.0000     -24.335888      -662.2132
   1   1.0000     -18.824646      -512.2447
   2   1.0000     -10.063953      -273.8541
   3   1.0000      -1.191753       -32.4292
   4   1.0000      -1.026524       -27.9331
   5   1.0000      -0.594080       -16.1657
   6   1.0000      -0.477499       -12.9934
   7   1.0000      -0.472450       -12.8560
   8   1.0000      -0.459534       -12.5046
   9   1.0000      -0.376830       -10.2541
  10   1.0000      -0.350303        -9.5322
  11   0.0000      -0.173848        -4.7307
  12   0.0000      -0.065356        -1.7784
  13   0.0000       0.002256         0.0614
  14   0.0000       0.016971         0.4618
  15   0.0000       0.019561         0.5323

MULLIKEN ATOMIC CHARGES AND SPIN POPULATIONS
--------------------------------------------
   0 F :   -0.260455    0.088184
   1 C :    0.460503    0.637910
   2 O :   -0.200048    0.273906
Sum of atomic charges         :   -0.0000000

LOEWDIN ATOMIC CHARGES AND SPIN POPULATIONS
-------------------------------------------
   0 F :    0.115390    0.235672
   1 C :   -0.367483    0.492767
   2 O :    0.252093    0.271561

  Mayer bond orders larger than 0.1
B(  0-F ,  1-C ) :   1.0359 B(  1-C ,  2-O ) :   2.2135

FINAL SINGLE POINT ENERGY      -213.002033879635

DIPOLE MOMENT
-------------
                                X             Y             Z
Electronic contribution:     -1.23850      -0.34430       0.00000
Nuclear contribution   :      0.94327       0.38437       0.00000
                        -----------------------------------------
Total Dipole Moment    :     -0.29523       0.04008       0.00000
                        -----------------------------------------
Magnitude (a.u.)       :      0.29794
Magnitude (Debye)      :      0.75729

Rotational constants in cm-1:     6.148275     0.382494     0.360092
Rotational constants in MHz : 184320.655220 11466.873652 10795.282401

                             ****ORCA TERMINATED NORMALLY****
TOTAL RUN TIME: 0 days 0 hours 47 minutes 17 seconds 424 msec
