                         Program Version 4.1.2  - RELEASE  -
|  1> !uks pbe nori aug-pc-4 grid5 nofinalgrid verytightscf
|  2>
|  3> %maxcore 1500
|  4>
|  5> %pal nprocs 4 end
|  6>
|  7> %scf
|  8> 	maxiter 200
|  9> end
| 10> %elprop
| 11> 	dipole true
| 12> 	 polar 1
| 13> 	 maxiter 200
| 14> end
| 15>
| 16> * xyz 0 1
| 17> F -0.9545 -0.6093 0.0000
| 18> N 0.0000 0.5633 0.0000
| 19> O 1.0738 0.1926 0.0000
| 20> *
| 21>
| 22>                          ****END OF INPUT****

CARTESIAN COORDINATES (ANGSTROEM)
---------------------------------
  F     -0.954500   -0.609300    0.000000
  N      0.000000    0.563300    0.000000
  O      1.073800    0.192600    0.000000

 Total Charge           Charge          ....    0
 Multiplicity           Mult            ....    1
 Number of Electrons    NEL             ....   24
 Basis Dimension        Dim             ....  435

ORBITAL ENERGIES
----------------
                 SPIN UP ORBITALS
  NO   OCC          E(Eh)            E(eV)
   0   1.0000     -24.263417      -660.2411
   1   1.0000     -18.907306      -514.4939
   2   1.0000     -14.214028      -386.7834
   3   1.0000      -1.217993       -33.1433
   4   1.0000      -1.070120       -29.1194
   5   1.0000      -0.653527       -17.7834
   6   1.0000      -0.538037       -14.6407
   7   1.0000      -0.520923       -14.1750
   8   1.0000      -0.491375       -13.3710
   9   1.0000      -0.359579        -9.7846
  10   1.0000      -0.341693        -9.2979
  11   1.0000      -0.305942        -8.3251
  12   0.0000      -0.174222        -4.7408
  13   0.0000      -0.059085        -1.6078
  14   0.0000      -0.003043        -0.0828
  15   0.0000       0.020535         0.5588
  16   0.0000       0.022080         0.6008

                 SPIN DOWN ORBITALS
  NO   OCC          E(Eh)            E(eV)
   0   1.0000     -24.263417      -660.2411
   1   1.0000     -18.907306      -514.4939
   2   1.0000     -14.214028      -386.7834
   3   1.0000      -1.217993       -33.1433
   4   1.0000      -1.070120       -29.1194
   5   1.0000      -0.653527       -17.7834
   6   1.0000      -0.538037       -14.6407
   7   1.0000      -0.520923       -14.1750
   8   1.0000      -0.491375       -13.3710
   9   1.0000      -0.359579        -9.7846
  10   1.0000      -0.341693        -9.2979
  11   1.0000      -0.305942        -8.3251
  12   0.0000      -0.174222        -4.7408
  13   0.0000      -0.059085        -1.6078
  14   0.0000      -0.003043        -0.0828
  15   0.0000       0.020535         0.5588
  16   0.0000       0.022080         0.6008

MULLIKEN ATOMIC CHARGES AND SPIN POPULATIONS
--------------------------------------------
   0 F :   -0.259668    0.000000
   1 N :    0.360275    0.000000
   2 O :   -0.100607   -0.000000
Sum of atomic charges         :    0.0000000

LOEWDIN ATOMIC CHARGES AND SPIN POPULATIONS
-------------------------------------------
   0 F :   -0.102481    0.000000
   1 N :   -0.118986    0.000000
   2 O :    0.221466   -0.000000

  Mayer bond orders larger than 0.1
B(  0-F ,  1-N ) :   0.8080 B(  0-F ,  2-O ) :   0.2157 B(  1-N ,  2-O ) :   2.1296

FINAL SINGLE POINT ENERGY      -229.625628366493

DIPOLE MOMENT
-------------
                                X             Y             Z
Electronic contribution:     -0.41629      -0.22093      -0.00000
Nuclear contribution   :      0.88262       0.55932       0.00000
                        -----------------------------------------
Total Dipole Moment    :      0.46633       0.33839      -0.00000
                        -----------------------------------------
Magnitude (a.u.)       :      0.57617
Magnitude (Debye)      :      1.46450

Rotational constants in cm-1:     3.169928     0.396622     0.352515
Rotational constants in MHz : 95032.062293 11890.431086 10568.142885

                             ****ORCA TERMINATED NORMALLY****
TOTAL RUN TIME: 0 days 0 hours 42 minutes 13 seconds 894 msec
