                         Program Version 4.1.2  - RELEASE  -
|  1> !uks pbe nori aug-pc-4 grid5 nofinalgrid verytightscf
|  2>
|  3> %maxcore 1500
|  4>
|  5> %pal nprocs 4 end
|  6>
|  7> %scf
|  8> 	maxiter 200
|  9> end
| 10> %elprop
| 11> 	dipole true
| 12> 	 polar 1
| 13> 	 maxiter 200
| 14> end
| 15>
| 16> * xyz 0 1
| 17> H 0.0000 0.0000 0.0000
| 18> H 0.0000 0.0000 0.7414
| 19> *
| 20>
| 21>                          ****END OF INPUT****

CARTESIAN COORDINATES (ANGSTROEM)
---------------------------------
  H      0.000000    0.000000    0.000000
  H      0.000000    0.000000    0.741400

 Total Charge           Charge          ....    0
 Multiplicity           Mult            ....    1
 Number of Electrons    NEL             ....    2
 Basis Dimension        Dim             ....  176

ORBITAL ENERGIES
----------------
                 SPIN UP ORBITALS
  NO   OCC          E(Eh)            E(eV)
   0   1.0000      -0.381460       -10.3800
   1   0.0000       0.007810         0.2125
   2   0.0000       0.009155         0.2491
   3   0.0000       0.047160         1.2833
   4   0.0000       0.047160         1.2833
   5   0.0000       0.048354         1.3158

                 SPIN DOWN ORBITALS
  NO   OCC          E(Eh)            E(eV)
   0   1.0000      -0.381460       -10.3800
   1   0.0000       0.007810         0.2125
   2   0.0000       0.009155         0.2491
   3   0.0000       0.047160         1.2833
   4   0.0000       0.047160         1.2833
   5   0.0000       0.048354         1.3158

MULLIKEN ATOMIC CHARGES AND SPIN POPULATIONS
--------------------------------------------
   0 H :    0.000002    0.000000
   1 H :   -0.000002   -0.000000
Sum of atomic charges         :   -0.0000000

LOEWDIN ATOMIC CHARGES AND SPIN POPULATIONS
-------------------------------------------
   0 H :    0.000000   -0.000000
   1 H :   -0.000000    0.000000

  Mayer bond orders larger than 0.1
B(  0-H ,  1-H ) :   1.0000

FINAL SINGLE POINT ENERGY        -1.166698045519

DIPOLE MOMENT
-------------
                                X             Y             Z
Electronic contribution:      0.00000      -0.00000      -0.00000
Nuclear contribution   :      0.00000       0.00000       0.00000
                        -----------------------------------------
Total Dipole Moment    :      0.00000      -0.00000      -0.00000
                        -----------------------------------------
Magnitude (a.u.)       :      0.00000
Magnitude (Debye)      :      0.00000

Rotational constants in cm-1:     0.000000    60.850087    60.850087
Rotational constants in MHz :     0.000000 1824239.705432 1824239.705432

                             ****ORCA TERMINATED NORMALLY****
TOTAL RUN TIME: 0 days 0 hours 0 minutes 36 seconds 774 msec
