                         Program Version 4.1.2  - RELEASE  -
|  1> !uks pbe nori aug-pc-4 grid5 nofinalgrid verytightscf
|  2>
|  3> %maxcore 1500
|  4>
|  5> %pal nprocs 4 end
|  6>
|  7> %scf
|  8> 	maxiter 200
|  9> end
| 10> %elprop
| 11> 	dipole true
| 12> 	 polar 1
| 13> 	 maxiter 200
| 14> end
| 15>
| 16> * xyz 0 2
| 17> C 0.0000000000 0.0000000000 -0.4906000000
| 18> N 0.0000000000 0.0000000000 0.7226000000
| 19> H 0.0000000000 0.9342000000 -1.0572000000
| 20> H 0.0000000000 -0.9342000000 -1.0572000000
| 21> *
| 22>
| 23>                          ****END OF INPUT****

CARTESIAN COORDINATES (ANGSTROEM)
---------------------------------
  C      0.000000    0.000000   -0.490600
  N      0.000000    0.000000    0.722600
  H      0.000000    0.934200   -1.057200
  H      0.000000   -0.934200   -1.057200

 Total Charge           Charge          ....    0
 Multiplicity           Mult            ....    2
 Number of Electrons    NEL             ....   15
 Basis Dimension        Dim             ....  466

ORBITAL ENERGIES
----------------
                 SPIN UP ORBITALS
  NO   OCC          E(Eh)            E(eV)
   0   1.0000     -14.016787      -381.4162
   1   1.0000      -9.930499      -270.2226
   2   1.0000      -0.851665       -23.1750
   3   1.0000      -0.552482       -15.0338
   4   1.0000      -0.455345       -12.3906
   5   1.0000      -0.335440        -9.1278
   6   1.0000      -0.328048        -8.9267
   7   1.0000      -0.222922        -6.0660
   8   0.0000      -0.060236        -1.6391
   9   0.0000      -0.018424        -0.5013
  10   0.0000       0.006979         0.1899
  11   0.0000       0.012314         0.3351
  12   0.0000       0.017635         0.4799

                 SPIN DOWN ORBITALS
  NO   OCC          E(Eh)            E(eV)
   0   1.0000     -13.999607      -380.9487
   1   1.0000      -9.932428      -270.2751
   2   1.0000      -0.824719       -22.4417
   3   1.0000      -0.537365       -14.6224
   4   1.0000      -0.433564       -11.7979
   5   1.0000      -0.318881        -8.6772
   6   1.0000      -0.314379        -8.5547
   7   0.0000      -0.141752        -3.8573
   8   0.0000      -0.052124        -1.4184
   9   0.0000      -0.012804        -0.3484
  10   0.0000       0.011829         0.3219
  11   0.0000       0.015618         0.4250

MULLIKEN ATOMIC CHARGES AND SPIN POPULATIONS
--------------------------------------------
   0 C :   -0.004594   -0.108607
   1 N :   -0.130353    0.922105
   2 H :    0.067474    0.093228
   3 H :    0.067472    0.093274
Sum of atomic charges         :    0.0000000

LOEWDIN ATOMIC CHARGES AND SPIN POPULATIONS
-------------------------------------------
   0 C :    0.426263    0.207009
   1 N :    0.500433    0.637807
   2 H :   -0.463348    0.077592
   3 H :   -0.463348    0.077592

  Mayer bond orders larger than 0.1
B(  0-C ,  1-N ) :   2.1790 B(  0-C ,  2-H ) :   0.9414 B(  0-C ,  3-H ) :   0.9414

FINAL SINGLE POINT ENERGY       -93.906381971827

DIPOLE MOMENT
-------------
                                X             Y             Z
Electronic contribution:      0.00000      -0.00000       1.15011
Nuclear contribution   :      0.00000       0.00000      -2.12050
                        -----------------------------------------
Total Dipole Moment    :      0.00000      -0.00000      -0.97039
                        -----------------------------------------
Magnitude (a.u.)       :      0.97039
Magnitude (Debye)      :      2.46654

Rotational constants in cm-1:     9.581349     1.370433     1.198946
Rotational constants in MHz : 287241.608660 41084.561275 35943.511521

                             ****ORCA TERMINATED NORMALLY****
TOTAL RUN TIME: 0 days 0 hours 46 minutes 8 seconds 89 msec
