                         Program Version 4.1.2  - RELEASE  -
|  1> !uks pbe nori aug-pc-4 grid5 nofinalgrid verytightscf
|  2>
|  3> %maxcore 1500
|  4>
|  5> %pal nprocs 4 end
|  6>
|  7> %scf
|  8> 	maxiter 200
|  9> end
| 10> %elprop
| 11> 	dipole true
| 12> 	 polar 1
| 13> 	 maxiter 200
| 14> end
| 15>
| 16> * xyz 0 2
| 17> Li 0.000000 0.000000 0.000000
| 18> O 0.000000 0.000000 1.876166
| 19> H 0.835500 0.000000 2.357191
| 20> H -0.587326 0.594229 2.357191
| 21> *
| 22>
| 23>                          ****END OF INPUT****

CARTESIAN COORDINATES (ANGSTROEM)
---------------------------------
  Li     0.000000    0.000000    0.000000
  O      0.000000    0.000000    1.876166
  H      0.835500    0.000000    2.357191
  H     -0.587326    0.594229    2.357191

 Total Charge           Charge          ....    0
 Multiplicity           Mult            ....    2
 Number of Electrons    NEL             ....   13
 Basis Dimension        Dim             ....  404

ORBITAL ENERGIES
----------------
                 SPIN UP ORBITALS
  NO   OCC          E(Eh)            E(eV)
   0   1.0000     -18.810328      -511.8550
   1   1.0000      -1.870048       -50.8866
   2   1.0000      -0.986480       -26.8435
   3   1.0000      -0.541034       -14.7223
   4   1.0000      -0.421475       -11.4689
   5   1.0000      -0.331178        -9.0118
   6   1.0000      -0.098747        -2.6871
   7   0.0000      -0.058140        -1.5821
   8   0.0000      -0.041851        -1.1388
   9   0.0000      -0.032604        -0.8872
  10   0.0000      -0.006776        -0.1844
  11   0.0000      -0.003370        -0.0917

                 SPIN DOWN ORBITALS
  NO   OCC          E(Eh)            E(eV)
   0   1.0000     -18.809649      -511.8366
   1   1.0000      -1.864826       -50.7445
   2   1.0000      -0.984749       -26.7964
   3   1.0000      -0.538409       -14.6508
   4   1.0000      -0.419712       -11.4209
   5   1.0000      -0.329378        -8.9628
   6   0.0000      -0.062102        -1.6899
   7   0.0000      -0.006206        -0.1689
   8   0.0000      -0.002766        -0.0753
   9   0.0000       0.005132         0.1397
  10   0.0000       0.010321         0.2809

MULLIKEN ATOMIC CHARGES AND SPIN POPULATIONS
--------------------------------------------
   0 Li:   -0.174841    0.905186
   1 O :   -0.013880   -0.174959
   2 H :    0.093363    0.135717
   3 H :    0.095358    0.134056
Sum of atomic charges         :    0.0000000

LOEWDIN ATOMIC CHARGES AND SPIN POPULATIONS
-------------------------------------------
   0 Li:    0.113015    0.563684
   1 O :    1.366098    0.121542
   2 H :   -0.739557    0.157388
   3 H :   -0.739556    0.157386

  Mayer bond orders larger than 0.1
B(  0-Li,  2-H ) :   0.2831 B(  0-Li,  3-H ) :   0.2802 B(  1-O ,  2-H ) :   0.8483
B(  1-O ,  3-H ) :   0.8491

FINAL SINGLE POINT ENERGY       -83.873203821806

DIPOLE MOMENT
-------------
                                X             Y             Z
Electronic contribution:     -0.18467      -0.44221      -2.10788
Nuclear contribution   :      0.22273       0.53330       3.04627
                        -----------------------------------------
Total Dipole Moment    :      0.03806       0.09109       0.93839
                        -----------------------------------------
Magnitude (a.u.)       :      0.94357
Magnitude (Debye)      :      2.39837

Rotational constants in cm-1:    12.307592     0.874816     0.830557
Rotational constants in MHz : 368972.319929 26226.314160 24899.457754

                             ****ORCA TERMINATED NORMALLY****
TOTAL RUN TIME: 0 days 0 hours 27 minutes 4 seconds 636 msec
