                         Program Version 4.1.2  - RELEASE  -
|  1> !uks pbe nori aug-pc-4 grid5 nofinalgrid verytightscf
|  2>
|  3> %maxcore 1500
|  4>
|  5> %pal nprocs 4 end
|  6>
|  7> %scf
|  8> 	maxiter 200
|  9> end
| 10> %elprop
| 11> 	dipole true
| 12> 	 polar 1
| 13> 	 maxiter 200
| 14> end
| 15>
| 16> * xyz 0 1
| 17> B 0.0000 0.0000 1.1660
| 18> H 0.0000 0.0000 0.0000
| 19> O 0.0000 0.0000 2.3660
| 20> *
| 21>
| 22>                          ****END OF INPUT****

CARTESIAN COORDINATES (ANGSTROEM)
---------------------------------
  B      0.000000    0.000000    1.166000
  H      0.000000    0.000000    0.000000
  O      0.000000    0.000000    2.366000

 Total Charge           Charge          ....    0
 Multiplicity           Mult            ....    1
 Number of Electrons    NEL             ....   14
 Basis Dimension        Dim             ....  378

ORBITAL ENERGIES
----------------
                 SPIN UP ORBITALS
  NO   OCC          E(Eh)            E(eV)
   0   1.0000     -18.761013      -510.5131
   1   1.0000      -6.543815      -178.0663
   2   1.0000      -0.909255       -24.7421
   3   1.0000      -0.444791       -12.1034
   4   1.0000      -0.366851        -9.9825
   5   1.0000      -0.328065        -8.9271
   6   1.0000      -0.328065        -8.9271
   7   0.0000      -0.042778        -1.1640
   8   0.0000      -0.042778        -1.1640
   9   0.0000      -0.007560        -0.2057
  10   0.0000      -0.002494        -0.0679
  11   0.0000       0.017575         0.4782

                 SPIN DOWN ORBITALS
  NO   OCC          E(Eh)            E(eV)
   0   1.0000     -18.761013      -510.5131
   1   1.0000      -6.543815      -178.0663
   2   1.0000      -0.909255       -24.7421
   3   1.0000      -0.444791       -12.1034
   4   1.0000      -0.366851        -9.9825
   5   1.0000      -0.328065        -8.9271
   6   1.0000      -0.328065        -8.9271
   7   0.0000      -0.042778        -1.1640
   8   0.0000      -0.042778        -1.1640
   9   0.0000      -0.007560        -0.2057
  10   0.0000      -0.002494        -0.0679
  11   0.0000       0.017575         0.4782

MULLIKEN ATOMIC CHARGES AND SPIN POPULATIONS
--------------------------------------------
   0 B :    0.196028    0.000000
   1 H :    0.127188    0.000000
   2 O :   -0.323215   -0.000000
Sum of atomic charges         :   -0.0000000

LOEWDIN ATOMIC CHARGES AND SPIN POPULATIONS
-------------------------------------------
   0 B :    0.000875    0.000000
   1 H :   -0.389305    0.000000
   2 O :    0.388430   -0.000000

  Mayer bond orders larger than 0.1
B(  0-B ,  1-H ) :   1.0526 B(  0-B ,  2-O ) :   2.0113

FINAL SINGLE POINT ENERGY      -100.637279124475

DIPOLE MOMENT
-------------
                                X             Y             Z
Electronic contribution:      0.00000      -0.00000       0.18657
Nuclear contribution   :      0.00000       0.00000      -1.20380
                        -----------------------------------------
Total Dipole Moment    :      0.00000      -0.00000      -1.01722
                        -----------------------------------------
Magnitude (a.u.)       :      1.01722
Magnitude (Debye)      :      2.58557

Rotational constants in cm-1:     0.000000     1.324137     1.324137
Rotational constants in MHz :     0.000000 39696.630725 39696.630725

                             ****ORCA TERMINATED NORMALLY****
TOTAL RUN TIME: 0 days 0 hours 18 minutes 15 seconds 705 msec
