                         Program Version 4.1.2  - RELEASE  -
|  1> !uks pbe nori aug-pc-4 grid5 nofinalgrid verytightscf
|  2>
|  3> %maxcore 1500
|  4>
|  5> %pal nprocs 4 end
|  6>
|  7> %scf
|  8> 	maxiter 200
|  9> end
| 10> %elprop
| 11> 	dipole true
| 12> 	 polar 1
| 13> 	 maxiter 200
| 14> end
| 15>
| 16> * xyz 0 1
| 17> B 0.0000 0.0000 0.0000
| 18> H 0.0000 0.0000 1.1692
| 19> S 0.0000 0.0000 -1.5995
| 20> *
| 21>
| 22>                          ****END OF INPUT****

CARTESIAN COORDINATES (ANGSTROEM)
---------------------------------
  B      0.000000    0.000000    0.000000
  H      0.000000    0.000000    1.169200
  S      0.000000    0.000000   -1.599500

 Total Charge           Charge          ....    0
 Multiplicity           Mult            ....    1
 Number of Electrons    NEL             ....   22
 Basis Dimension        Dim             ....  374

ORBITAL ENERGIES
----------------
                 SPIN UP ORBITALS
  NO   OCC          E(Eh)            E(eV)
   0   1.0000     -88.032722     -2395.4922
   1   1.0000      -7.674819      -208.8424
   2   1.0000      -6.562422      -178.5726
   3   1.0000      -5.691349      -154.8695
   4   1.0000      -5.691349      -154.8695
   5   1.0000      -5.690901      -154.8573
   6   1.0000      -0.666083       -18.1250
   7   1.0000      -0.434946       -11.8355
   8   1.0000      -0.343796        -9.3552
   9   1.0000      -0.272655        -7.4193
  10   1.0000      -0.272655        -7.4193
  11   0.0000      -0.080232        -2.1832
  12   0.0000      -0.080232        -2.1832
  13   0.0000      -0.010237        -0.2786
  14   0.0000       0.001315         0.0358
  15   0.0000       0.011710         0.3187

                 SPIN DOWN ORBITALS
  NO   OCC          E(Eh)            E(eV)
   0   1.0000     -88.032722     -2395.4922
   1   1.0000      -7.674819      -208.8424
   2   1.0000      -6.562422      -178.5726
   3   1.0000      -5.691349      -154.8695
   4   1.0000      -5.691349      -154.8695
   5   1.0000      -5.690901      -154.8573
   6   1.0000      -0.666083       -18.1250
   7   1.0000      -0.434946       -11.8355
   8   1.0000      -0.343796        -9.3552
   9   1.0000      -0.272655        -7.4193
  10   1.0000      -0.272655        -7.4193
  11   0.0000      -0.080232        -2.1832
  12   0.0000      -0.080232        -2.1832
  13   0.0000      -0.010237        -0.2786
  14   0.0000       0.001315         0.0358
  15   0.0000       0.011710         0.3187

MULLIKEN ATOMIC CHARGES AND SPIN POPULATIONS
--------------------------------------------
   0 B :   -0.107880    0.000000
   1 H :    0.161940   -0.000000
   2 S :   -0.054060    0.000000
Sum of atomic charges         :   -0.0000000

LOEWDIN ATOMIC CHARGES AND SPIN POPULATIONS
-------------------------------------------
   0 B :   -0.305153    0.000000
   1 H :   -0.660269   -0.000000
   2 S :    0.965422   -0.000000

  Mayer bond orders larger than 0.1
B(  0-B ,  1-H ) :   0.9270 B(  0-B ,  2-S ) :   2.3693 B(  1-H ,  2-S ) :  -0.1379

FINAL SINGLE POINT ENERGY      -423.471460624613

DIPOLE MOMENT
-------------
                                X             Y             Z
Electronic contribution:      0.00000      -0.00000      -0.83553
Nuclear contribution   :      0.00000       0.00000       1.31820
                        -----------------------------------------
Total Dipole Moment    :      0.00000      -0.00000       0.48266
                        -----------------------------------------
Magnitude (a.u.)       :      0.48266
Magnitude (Debye)      :      1.22683

Rotational constants in cm-1:     0.000000     0.643600     0.643600
Rotational constants in MHz :     0.000000 19294.633300 19294.633300

                             ****ORCA TERMINATED NORMALLY****
TOTAL RUN TIME: 0 days 0 hours 23 minutes 30 seconds 497 msec
