                         Program Version 4.1.2  - RELEASE  -
|  1> !uks pbe nori aug-pc-4 grid5 nofinalgrid verytightscf
|  2>
|  3> %maxcore 1500
|  4>
|  5> %pal nprocs 4 end
|  6>
|  7> %scf
|  8> 	maxiter 200
|  9> end
| 10> %elprop
| 11> 	dipole true
| 12> 	 polar 1
| 13> 	 maxiter 200
| 14> end
| 15>
| 16> * xyz 0 1
| 17> C 0.0000000000 0.0000000000 -0.0942000000
| 18> C 0.0000000000 0.0000000000 -1.2922000000
| 19> F 0.0000000000 0.0000000000 1.1848000000
| 20> H 0.0000000000 0.0000000000 -2.3452000000
| 21> *
| 22>
| 23>                          ****END OF INPUT****

CARTESIAN COORDINATES (ANGSTROEM)
---------------------------------
  C      0.000000    0.000000   -0.094200
  C      0.000000    0.000000   -1.292200
  F      0.000000    0.000000    1.184800
  H      0.000000    0.000000   -2.345200

 Total Charge           Charge          ....    0
 Multiplicity           Mult            ....    1
 Number of Electrons    NEL             ....   22
 Basis Dimension        Dim             ....  523

ORBITAL ENERGIES
----------------
                 SPIN UP ORBITALS
  NO   OCC          E(Eh)            E(eV)
   0   1.0000     -24.342305      -662.3878
   1   1.0000      -9.977748      -271.5083
   2   1.0000      -9.896143      -269.2878
   3   1.0000      -1.205002       -32.7898
   4   1.0000      -0.699339       -19.0300
   5   1.0000      -0.582120       -15.8403
   6   1.0000      -0.482334       -13.1250
   7   1.0000      -0.465396       -12.6641
   8   1.0000      -0.465396       -12.6641
   9   1.0000      -0.257522        -7.0075
  10   1.0000      -0.257522        -7.0075
  11   0.0000      -0.027300        -0.7429
  12   0.0000       0.004684         0.1275
  13   0.0000       0.004684         0.1275
  14   0.0000       0.004892         0.1331
  15   0.0000       0.020961         0.5704

                 SPIN DOWN ORBITALS
  NO   OCC          E(Eh)            E(eV)
   0   1.0000     -24.342305      -662.3878
   1   1.0000      -9.977748      -271.5083
   2   1.0000      -9.896143      -269.2878
   3   1.0000      -1.205002       -32.7898
   4   1.0000      -0.699339       -19.0300
   5   1.0000      -0.582120       -15.8403
   6   1.0000      -0.482334       -13.1250
   7   1.0000      -0.465396       -12.6641
   8   1.0000      -0.465396       -12.6641
   9   1.0000      -0.257522        -7.0075
  10   1.0000      -0.257522        -7.0075
  11   0.0000      -0.027300        -0.7429
  12   0.0000       0.004684         0.1275
  13   0.0000       0.004684         0.1275
  14   0.0000       0.004892         0.1331
  15   0.0000       0.020961         0.5704

MULLIKEN ATOMIC CHARGES AND SPIN POPULATIONS
--------------------------------------------
   0 C :    0.903509   -0.000000
   1 C :   -0.307367    0.000000
   2 F :   -0.683680    0.000000
   3 H :    0.087539   -0.000000
Sum of atomic charges         :   -0.0000000

LOEWDIN ATOMIC CHARGES AND SPIN POPULATIONS
-------------------------------------------
   0 C :   -0.162595   -0.000000
   1 C :    0.446601    0.000000
   2 F :    0.236823    0.000000
   3 H :   -0.520829   -0.000000

  Mayer bond orders larger than 0.1
B(  0-C ,  1-C ) :   2.7878 B(  0-C ,  2-F ) :   0.4249 B(  0-C ,  3-H ) :   0.1033
B(  1-C ,  2-F ) :   0.2386 B(  1-C ,  3-H ) :   1.1512 B(  2-F ,  3-H ) :  -0.1462

FINAL SINGLE POINT ENERGY      -176.440479980434

DIPOLE MOMENT
-------------
                                X             Y             Z
Electronic contribution:      0.00000       0.00000       3.11668
Nuclear contribution   :      0.00000       0.00000      -3.29889
                        -----------------------------------------
Total Dipole Moment    :      0.00000       0.00000      -0.18221
                        -----------------------------------------
Magnitude (a.u.)       :      0.18221
Magnitude (Debye)      :      0.46314

Rotational constants in cm-1:     0.000000     0.323578     0.323578
Rotational constants in MHz :     0.000000  9700.619028  9700.619028

                             ****ORCA TERMINATED NORMALLY****
TOTAL RUN TIME: 0 days 1 hours 15 minutes 27 seconds 878 msec
