                         Program Version 4.1.2  - RELEASE  -
|  1> !uks pbe nori aug-pc-4 grid5 nofinalgrid verytightscf
|  2>
|  3> %maxcore 1500
|  4>
|  5> %pal nprocs 4 end
|  6>
|  7> %scf
|  8> 	maxiter 200
|  9> end
| 10> %elprop
| 11> 	dipole true
| 12> 	 polar 1
| 13> 	 maxiter 200
| 14> end
| 15>
| 16> * xyz 0 1
| 17> S 0.0000 0.0000 0.5846
| 18> C 0.0000 0.0000 -1.0262
| 19> H 0.0000 0.9244 -1.5980
| 20> H 0.0000 -0.9244 -1.5980
| 21> *
| 22>
| 23>                          ****END OF INPUT****

CARTESIAN COORDINATES (ANGSTROEM)
---------------------------------
  S      0.000000    0.000000    0.584600
  C      0.000000    0.000000   -1.026200
  H      0.000000    0.924400   -1.598000
  H      0.000000   -0.924400   -1.598000

 Total Charge           Charge          ....    0
 Multiplicity           Mult            ....    1
 Number of Electrons    NEL             ....   24
 Basis Dimension        Dim             ....  462

ORBITAL ENERGIES
----------------
                 SPIN UP ORBITALS
  NO   OCC          E(Eh)            E(eV)
   0   1.0000     -88.036253     -2395.5882
   1   1.0000      -9.956901      -270.9410
   2   1.0000      -7.675765      -208.8682
   3   1.0000      -5.697327      -155.0322
   4   1.0000      -5.694131      -154.9452
   5   1.0000      -5.685604      -154.7132
   6   1.0000      -0.732375       -19.9289
   7   1.0000      -0.548961       -14.9380
   8   1.0000      -0.421099       -11.4587
   9   1.0000      -0.359712        -9.7883
  10   1.0000      -0.298640        -8.1264
  11   1.0000      -0.203066        -5.5257
  12   0.0000      -0.133284        -3.6268
  13   0.0000      -0.019293        -0.5250
  14   0.0000       0.003400         0.0925
  15   0.0000       0.008140         0.2215
  16   0.0000       0.014910         0.4057

                 SPIN DOWN ORBITALS
  NO   OCC          E(Eh)            E(eV)
   0   1.0000     -88.036253     -2395.5882
   1   1.0000      -9.956901      -270.9410
   2   1.0000      -7.675765      -208.8682
   3   1.0000      -5.697327      -155.0322
   4   1.0000      -5.694131      -154.9452
   5   1.0000      -5.685604      -154.7132
   6   1.0000      -0.732375       -19.9289
   7   1.0000      -0.548961       -14.9380
   8   1.0000      -0.421099       -11.4587
   9   1.0000      -0.359712        -9.7883
  10   1.0000      -0.298640        -8.1264
  11   1.0000      -0.203066        -5.5257
  12   0.0000      -0.133284        -3.6268
  13   0.0000      -0.019293        -0.5250
  14   0.0000       0.003400         0.0925
  15   0.0000       0.008140         0.2215
  16   0.0000       0.014910         0.4057

MULLIKEN ATOMIC CHARGES AND SPIN POPULATIONS
--------------------------------------------
   0 S :   -0.178001   -0.000000
   1 C :    0.059480    0.000000
   2 H :    0.059262    0.000000
   3 H :    0.059259   -0.000000
Sum of atomic charges         :    0.0000000

LOEWDIN ATOMIC CHARGES AND SPIN POPULATIONS
-------------------------------------------
   0 S :    1.443361   -0.000000
   1 C :    0.051276    0.000000
   2 H :   -0.747319    0.000000
   3 H :   -0.747319   -0.000000

  Mayer bond orders larger than 0.1
B(  0-S ,  1-C ) :   1.8896 B(  0-S ,  2-H ) :   0.1478 B(  0-S ,  3-H ) :   0.1477
B(  1-C ,  2-H ) :   0.9701 B(  1-C ,  3-H ) :   0.9701

FINAL SINGLE POINT ENERGY      -437.282295566886

DIPOLE MOMENT
-------------
                                X             Y             Z
Electronic contribution:     -0.00000       0.00000       2.48589
Nuclear contribution   :      0.00000       0.00000      -3.14341
                        -----------------------------------------
Total Dipole Moment    :     -0.00000       0.00000      -0.65752
                        -----------------------------------------
Magnitude (a.u.)       :      0.65752
Magnitude (Debye)      :      1.67129

Rotational constants in cm-1:     9.785578     0.590834     0.557192
Rotational constants in MHz : 293364.259384 17712.772515 16704.204611

                             ****ORCA TERMINATED NORMALLY****
TOTAL RUN TIME: 0 days 0 hours 47 minutes 37 seconds 157 msec
