                         Program Version 4.1.2  - RELEASE  -
|  1> !uks pbe nori aug-pc-4 grid5 nofinalgrid verytightscf
|  2>
|  3> %maxcore 1500
|  4>
|  5> %pal nprocs 4 end
|  6>
|  7> %scf
|  8> 	maxiter 200
|  9> end
| 10> %elprop
| 11> 	dipole true
| 12> 	 polar 1
| 13> 	 maxiter 200
| 14> end
| 15>
| 16> * xyz 0 1
| 17> Cl 0.0000 0.0000 0.0000
| 18> H 0.0000 0.0000 1.2746
| 19> *
| 20>
| 21>                          ****END OF INPUT****

CARTESIAN COORDINATES (ANGSTROEM)
---------------------------------
  Cl     0.000000    0.000000    0.000000
  H      0.000000    0.000000    1.274600

 Total Charge           Charge          ....    0
 Multiplicity           Mult            ....    1
 Number of Electrons    NEL             ....   18
 Basis Dimension        Dim             ....  229

ORBITAL ENERGIES
----------------
                 SPIN UP ORBITALS
  NO   OCC          E(Eh)            E(eV)
   0   1.0000    -100.660479     -2739.1109
   1   1.0000      -9.185548      -249.9515
   2   1.0000      -7.007840      -190.6930
   3   1.0000      -6.998049      -190.4266
   4   1.0000      -6.998049      -190.4266
   5   1.0000      -0.775753       -21.1093
   6   1.0000      -0.433038       -11.7836
   7   1.0000      -0.295577        -8.0431
   8   1.0000      -0.295577        -8.0431
   9   0.0000      -0.041093        -1.1182
  10   0.0000       0.011780         0.3205
  11   0.0000       0.022810         0.6207
  12   0.0000       0.027169         0.7393
  13   0.0000       0.027169         0.7393

                 SPIN DOWN ORBITALS
  NO   OCC          E(Eh)            E(eV)
   0   1.0000    -100.660479     -2739.1109
   1   1.0000      -9.185548      -249.9515
   2   1.0000      -7.007840      -190.6930
   3   1.0000      -6.998049      -190.4266
   4   1.0000      -6.998049      -190.4266
   5   1.0000      -0.775753       -21.1093
   6   1.0000      -0.433038       -11.7836
   7   1.0000      -0.295577        -8.0431
   8   1.0000      -0.295577        -8.0431
   9   0.0000      -0.041093        -1.1182
  10   0.0000       0.011780         0.3205
  11   0.0000       0.022810         0.6207
  12   0.0000       0.027169         0.7393
  13   0.0000       0.027169         0.7393

MULLIKEN ATOMIC CHARGES AND SPIN POPULATIONS
--------------------------------------------
   0 Cl:   -0.118630    0.000000
   1 H :    0.118630   -0.000000
Sum of atomic charges         :    0.0000000

LOEWDIN ATOMIC CHARGES AND SPIN POPULATIONS
-------------------------------------------
   0 Cl:    1.277794    0.000000
   1 H :   -1.277794   -0.000000

  Mayer bond orders larger than 0.1
B(  0-Cl,  1-H ) :   1.1648

FINAL SINGLE POINT ENERGY      -460.644211234128

DIPOLE MOMENT
-------------
                                X             Y             Z
Electronic contribution:      0.00000       0.00000      -0.78976
Nuclear contribution   :      0.00000       0.00000       1.21004
                        -----------------------------------------
Total Dipole Moment    :      0.00000       0.00000       0.42028
                        -----------------------------------------
Magnitude (a.u.)       :      0.42028
Magnitude (Debye)      :      1.06826

Rotational constants in cm-1:     0.000000    10.586786    10.586786
Rotational constants in MHz :     0.000000 317383.853331 317383.853331

                             ****ORCA TERMINATED NORMALLY****
TOTAL RUN TIME: 0 days 0 hours 3 minutes 46 seconds 795 msec
