                         Program Version 4.1.2  - RELEASE  -
|  1> !uks pbe nori aug-pc-4 grid5 nofinalgrid verytightscf
|  2>
|  3> %maxcore 1500
|  4>
|  5> %pal nprocs 4 end
|  6>
|  7> %scf
|  8> 	maxiter 200
|  9> end
| 10> %elprop
| 11> 	dipole true
| 12> 	 polar 1
| 13> 	 maxiter 200
| 14> end
| 15>
| 16> * xyz 0 1
| 17> C 0.0000 0.0000 0.0000
| 18> H 0.0000 0.0000 1.0640
| 19> N 0.0000 0.0000 -1.1560
| 20> *
| 21>
| 22>                          ****END OF INPUT****

CARTESIAN COORDINATES (ANGSTROEM)
---------------------------------
  C      0.000000    0.000000    0.000000
  H      0.000000    0.000000    1.064000
  N      0.000000    0.000000   -1.156000

 Total Charge           Charge          ....    0
 Multiplicity           Mult            ....    1
 Number of Electrons    NEL             ....   14
 Basis Dimension        Dim             ....  378

ORBITAL ENERGIES
----------------
                 SPIN UP ORBITALS
  NO   OCC          E(Eh)            E(eV)
   0   1.0000     -14.010082      -381.2337
   1   1.0000      -9.940127      -270.4846
   2   1.0000      -0.844928       -22.9917
   3   1.0000      -0.557274       -15.1642
   4   1.0000      -0.335958        -9.1419
   5   1.0000      -0.331609        -9.0235
   6   1.0000      -0.331609        -9.0235
   7   0.0000      -0.041594        -1.1318
   8   0.0000      -0.041594        -1.1318
   9   0.0000      -0.013757        -0.3744
  10   0.0000       0.005320         0.1448
  11   0.0000       0.019444         0.5291

                 SPIN DOWN ORBITALS
  NO   OCC          E(Eh)            E(eV)
   0   1.0000     -14.010082      -381.2337
   1   1.0000      -9.940127      -270.4846
   2   1.0000      -0.844928       -22.9917
   3   1.0000      -0.557274       -15.1642
   4   1.0000      -0.335958        -9.1419
   5   1.0000      -0.331609        -9.0235
   6   1.0000      -0.331609        -9.0235
   7   0.0000      -0.041594        -1.1318
   8   0.0000      -0.041594        -1.1318
   9   0.0000      -0.013757        -0.3744
  10   0.0000       0.005320         0.1448
  11   0.0000       0.019444         0.5291

MULLIKEN ATOMIC CHARGES AND SPIN POPULATIONS
--------------------------------------------
   0 C :   -0.105037   -0.000000
   1 H :    0.091409   -0.000000
   2 N :    0.013629    0.000000
Sum of atomic charges         :    0.0000000

LOEWDIN ATOMIC CHARGES AND SPIN POPULATIONS
-------------------------------------------
   0 C :    0.275970   -0.000000
   1 H :   -0.535940   -0.000000
   2 N :    0.259969    0.000000

  Mayer bond orders larger than 0.1
B(  0-C ,  1-H ) :   0.9752 B(  0-C ,  2-N ) :   2.8953 B(  1-H ,  2-N ) :   0.1313

FINAL SINGLE POINT ENERGY       -93.354768444050

DIPOLE MOMENT
-------------
                                X             Y             Z
Electronic contribution:     -0.00000       0.00000      -0.36205
Nuclear contribution   :      0.00000       0.00000       1.51979
                        -----------------------------------------
Total Dipole Moment    :     -0.00000       0.00000       1.15775
                        -----------------------------------------
Magnitude (a.u.)       :      1.15775
Magnitude (Debye)      :      2.94276

Rotational constants in cm-1:     0.000000     1.478659     1.478659
Rotational constants in MHz :     0.000000 44329.095918 44329.095918

                             ****ORCA TERMINATED NORMALLY****
TOTAL RUN TIME: 0 days 0 hours 19 minutes 50 seconds 103 msec
