                         Program Version 4.1.2  - RELEASE  -
|  1> !uks pbe nori aug-pc-4 grid5 nofinalgrid verytightscf
|  2>
|  3> %maxcore 1500
|  4>
|  5> %pal nprocs 4 end
|  6>
|  7> %scf
|  8> 	maxiter 200
|  9> end
| 10> %elprop
| 11> 	dipole true
| 12> 	 polar 1
| 13> 	 maxiter 200
| 14> end
| 15>
| 16> * xyz 0 2
| 17> C 0.0000 0.0000 0.0000
| 18> H 1.0800 0.0000 0.0000
| 19> O -0.5899 1.0427 0.0000
| 20> *
| 21>
| 22>                          ****END OF INPUT****

CARTESIAN COORDINATES (ANGSTROEM)
---------------------------------
  C      0.000000    0.000000    0.000000
  H      1.080000    0.000000    0.000000
  O     -0.589900    1.042700    0.000000

 Total Charge           Charge          ....    0
 Multiplicity           Mult            ....    2
 Number of Electrons    NEL             ....   15
 Basis Dimension        Dim             ....  378

ORBITAL ENERGIES
----------------
                 SPIN UP ORBITALS
  NO   OCC          E(Eh)            E(eV)
   0   1.0000     -18.821943      -512.1711
   1   1.0000      -9.991741      -271.8891
   2   1.0000      -1.016918       -27.6717
   3   1.0000      -0.570846       -15.5335
   4   1.0000      -0.450107       -12.2480
   5   1.0000      -0.395836       -10.7712
   6   1.0000      -0.385149       -10.4804
   7   1.0000      -0.189612        -5.1596
   8   0.0000      -0.105168        -2.8618
   9   0.0000      -0.015188        -0.4133
  10   0.0000       0.011025         0.3000
  11   0.0000       0.013083         0.3560
  12   0.0000       0.017555         0.4777

                 SPIN DOWN ORBITALS
  NO   OCC          E(Eh)            E(eV)
   0   1.0000     -18.814113      -511.9580
   1   1.0000      -9.983267      -271.6585
   2   1.0000      -1.003831       -27.3156
   3   1.0000      -0.550015       -14.9667
   4   1.0000      -0.432253       -11.7622
   5   1.0000      -0.388170       -10.5626
   6   1.0000      -0.347853        -9.4656
   7   0.0000      -0.127223        -3.4619
   8   0.0000      -0.088880        -2.4186
   9   0.0000      -0.005862        -0.1595
  10   0.0000       0.014943         0.4066
  11   0.0000       0.021239         0.5779

MULLIKEN ATOMIC CHARGES AND SPIN POPULATIONS
--------------------------------------------
   0 C :    0.155769    0.446497
   1 H :    0.030385    0.181150
   2 O :   -0.186153    0.372353
Sum of atomic charges         :   -0.0000000

LOEWDIN ATOMIC CHARGES AND SPIN POPULATIONS
-------------------------------------------
   0 C :    0.215206    0.481245
   1 H :   -0.571029    0.152309
   2 O :    0.355823    0.366445

  Mayer bond orders larger than 0.1
B(  0-C ,  1-H ) :   0.9881 B(  0-C ,  2-O ) :   2.2696

FINAL SINGLE POINT ENERGY      -113.782358905017

DIPOLE MOMENT
-------------
                                X             Y             Z
Electronic contribution:     -0.70265       0.32783      -0.00000
Nuclear contribution   :      1.27870      -0.53243       0.00000
                        -----------------------------------------
Total Dipole Moment    :      0.57605      -0.20460      -0.00000
                        -----------------------------------------
Magnitude (a.u.)       :      0.61130
Magnitude (Debye)      :      1.55381

Rotational constants in cm-1:    22.707377     1.478412     1.388041
Rotational constants in MHz : 680750.036446 44321.680166 41612.415293

                             ****ORCA TERMINATED NORMALLY****
TOTAL RUN TIME: 0 days 0 hours 23 minutes 42 seconds 145 msec
