                         Program Version 4.1.2  - RELEASE  -
|  1> !uks pbe nori aug-pc-4 grid5 nofinalgrid verytightscf
|  2>
|  3> %maxcore 1500
|  4>
|  5> %pal nprocs 4 end
|  6>
|  7> %scf
|  8> 	maxiter 200
|  9> end
| 10> %elprop
| 11> 	dipole true
| 12> 	 polar 1
| 13> 	 maxiter 200
| 14> end
| 15>
| 16> * xyz 0 1
| 17> C 0.0000 0.4165 0.0000
| 18> O 1.1942 0.2217 0.0000
| 19> N -0.9373 -0.5551 0.0000
| 20> H -0.4299 1.4182 0.0000
| 21> H -0.6608 -1.5171 0.0000
| 22> H -1.9020 -0.2881 0.0000
| 23> *
| 24>
| 25>                          ****END OF INPUT****

CARTESIAN COORDINATES (ANGSTROEM)
---------------------------------
  C      0.000000    0.416500    0.000000
  O      1.194200    0.221700    0.000000
  N     -0.937300   -0.555100    0.000000
  H     -0.429900    1.418200    0.000000
  H     -0.660800   -1.517100    0.000000
  H     -1.902000   -0.288100    0.000000

 Total Charge           Charge          ....    0
 Multiplicity           Mult            ....    1
 Number of Electrons    NEL             ....   24
 Basis Dimension        Dim             ....  699

ORBITAL ENERGIES
----------------
                 SPIN UP ORBITALS
  NO   OCC          E(Eh)            E(eV)
   0   1.0000     -18.724352      -509.5155
   1   1.0000     -14.020655      -381.5214
   2   1.0000      -9.979573      -271.5580
   3   1.0000      -0.957427       -26.0529
   4   1.0000      -0.844226       -22.9726
   5   1.0000      -0.577990       -15.7279
   6   1.0000      -0.516301       -14.0493
   7   1.0000      -0.441746       -12.0205
   8   1.0000      -0.372318       -10.1313
   9   1.0000      -0.369476       -10.0540
  10   1.0000      -0.250730        -6.8227
  11   1.0000      -0.221093        -6.0162
  12   0.0000      -0.030594        -0.8325
  13   0.0000      -0.029494        -0.8026
  14   0.0000      -0.006352        -0.1728
  15   0.0000       0.010676         0.2905
  16   0.0000       0.012430         0.3382

                 SPIN DOWN ORBITALS
  NO   OCC          E(Eh)            E(eV)
   0   1.0000     -18.724352      -509.5155
   1   1.0000     -14.020655      -381.5214
   2   1.0000      -9.979573      -271.5580
   3   1.0000      -0.957427       -26.0529
   4   1.0000      -0.844226       -22.9726
   5   1.0000      -0.577990       -15.7279
   6   1.0000      -0.516301       -14.0493
   7   1.0000      -0.441746       -12.0205
   8   1.0000      -0.372318       -10.1313
   9   1.0000      -0.369476       -10.0540
  10   1.0000      -0.250730        -6.8227
  11   1.0000      -0.221093        -6.0162
  12   0.0000      -0.030594        -0.8325
  13   0.0000      -0.029494        -0.8026
  14   0.0000      -0.006352        -0.1728
  15   0.0000       0.010676         0.2905
  16   0.0000       0.012430         0.3382

MULLIKEN ATOMIC CHARGES AND SPIN POPULATIONS
--------------------------------------------
   0 C :    0.606196    0.000000
   1 O :   -0.369499    0.000000
   2 N :   -0.405175    0.000000
   3 H :   -0.103112   -0.000000
   4 H :    0.152809   -0.000000
   5 H :    0.118781   -0.000000
Sum of atomic charges         :    0.0000000

LOEWDIN ATOMIC CHARGES AND SPIN POPULATIONS
-------------------------------------------
   0 C :    0.061744    0.000000
   1 O :    0.499048    0.000000
   2 N :    0.936972   -0.000000
   3 H :   -0.454562   -0.000000
   4 H :   -0.542116   -0.000000
   5 H :   -0.501088    0.000000

  Mayer bond orders larger than 0.1
B(  0-C ,  1-O ) :   1.6619 B(  0-C ,  2-N ) :   1.2491 B(  0-C ,  3-H ) :   0.9713
B(  1-O ,  3-H ) :   0.1107 B(  2-N ,  4-H ) :   0.9863 B(  2-N ,  5-H ) :   1.0545

FINAL SINGLE POINT ENERGY      -169.792396685243

DIPOLE MOMENT
-------------
                                X             Y             Z
Electronic contribution:      1.49986       0.12071       0.00000
Nuclear contribution   :     -2.98152      -0.38703       0.00000
                        -----------------------------------------
Total Dipole Moment    :     -1.48166      -0.26632       0.00000
                        -----------------------------------------
Magnitude (a.u.)       :      1.50540
Magnitude (Debye)      :      3.82642

Rotational constants in cm-1:     2.468819     0.383251     0.331751
Rotational constants in MHz : 74013.333721 11489.574538  9945.646668

                             ****ORCA TERMINATED NORMALLY****
TOTAL RUN TIME: 0 days 3 hours 26 minutes 55 seconds 88 msec
