                         Program Version 4.1.2  - RELEASE  -
|  1> !uks pbe nori aug-pc-4 grid5 nofinalgrid verytightscf
|  2>
|  3> %maxcore 1500
|  4>
|  5> %pal nprocs 4 end
|  6>
|  7> %scf
|  8> 	maxiter 200
|  9> end
| 10> %elprop
| 11> 	dipole true
| 12> 	 polar 1
| 13> 	 maxiter 200
| 14> end
| 15>
| 16> * xyz 0 1
| 17> C 0.0000 0.4199 0.0000
| 18> O -1.0543 -0.4121 0.0000
| 19> O 1.1506 0.0721 0.0000
| 20> H -0.0799 1.5140 0.0000
| 21> H -0.6905 -1.3134 0.0000
| 22> *
| 23>
| 24>                          ****END OF INPUT****

CARTESIAN COORDINATES (ANGSTROEM)
---------------------------------
  C      0.000000    0.419900    0.000000
  O     -1.054300   -0.412100    0.000000
  O      1.150600    0.072100    0.000000
  H     -0.079900    1.514000    0.000000
  H     -0.690500   -1.313400    0.000000

 Total Charge           Charge          ....    0
 Multiplicity           Mult            ....    1
 Number of Electrons    NEL             ....   24
 Basis Dimension        Dim             ....  611

ORBITAL ENERGIES
----------------
                 SPIN UP ORBITALS
  NO   OCC          E(Eh)            E(eV)
   0   1.0000     -18.821949      -512.1713
   1   1.0000     -18.753603      -510.3115
   2   1.0000     -10.019838      -272.6536
   3   1.0000      -1.037526       -28.2325
   4   1.0000      -0.951619       -25.8949
   5   1.0000      -0.608833       -16.5672
   6   1.0000      -0.490252       -13.3404
   7   1.0000      -0.443555       -12.0698
   8   1.0000      -0.413969       -11.2647
   9   1.0000      -0.362896        -9.8749
  10   1.0000      -0.302719        -8.2374
  11   1.0000      -0.247068        -6.7230
  12   0.0000      -0.056305        -1.5321
  13   0.0000      -0.026437        -0.7194
  14   0.0000      -0.004776        -0.1300
  15   0.0000       0.014975         0.4075
  16   0.0000       0.015128         0.4116

                 SPIN DOWN ORBITALS
  NO   OCC          E(Eh)            E(eV)
   0   1.0000     -18.821949      -512.1713
   1   1.0000     -18.753603      -510.3115
   2   1.0000     -10.019838      -272.6536
   3   1.0000      -1.037526       -28.2325
   4   1.0000      -0.951619       -25.8949
   5   1.0000      -0.608833       -16.5672
   6   1.0000      -0.490252       -13.3404
   7   1.0000      -0.443555       -12.0698
   8   1.0000      -0.413969       -11.2647
   9   1.0000      -0.362896        -9.8749
  10   1.0000      -0.302719        -8.2374
  11   1.0000      -0.247068        -6.7230
  12   0.0000      -0.056305        -1.5321
  13   0.0000      -0.026437        -0.7194
  14   0.0000      -0.004776        -0.1300
  15   0.0000       0.014975         0.4075
  16   0.0000       0.015128         0.4116

MULLIKEN ATOMIC CHARGES AND SPIN POPULATIONS
--------------------------------------------
   0 C :    0.602856   -0.000000
   1 O :   -0.341163   -0.000000
   2 O :   -0.355392    0.000000
   3 H :   -0.069169    0.000000
   4 H :    0.162868    0.000000
Sum of atomic charges         :   -0.0000000

LOEWDIN ATOMIC CHARGES AND SPIN POPULATIONS
-------------------------------------------
   0 C :   -0.037329   -0.000000
   1 O :    0.828521   -0.000000
   2 O :    0.484110   -0.000000
   3 H :   -0.458991    0.000000
   4 H :   -0.816310    0.000000

  Mayer bond orders larger than 0.1
B(  0-C ,  1-O ) :   1.1565 B(  0-C ,  2-O ) :   1.7636 B(  0-C ,  3-H ) :   1.0111
B(  1-O ,  4-H ) :   1.0662

FINAL SINGLE POINT ENERGY      -189.653279228811

DIPOLE MOMENT
-------------
                                X             Y             Z
Electronic contribution:      0.20211      -0.27716       0.00000
Nuclear contribution   :     -0.75299       0.19121       0.00000
                        -----------------------------------------
Total Dipole Moment    :     -0.55088      -0.08596       0.00000
                        -----------------------------------------
Magnitude (a.u.)       :      0.55754
Magnitude (Debye)      :      1.41716

Rotational constants in cm-1:     2.605842     0.401984     0.348261
Rotational constants in MHz : 78121.175235 12051.181517 10440.588413

                             ****ORCA TERMINATED NORMALLY****
TOTAL RUN TIME: 0 days 2 hours 13 minutes 34 seconds 581 msec
