                         Program Version 4.1.2  - RELEASE  -
|  1> !uks pbe nori aug-pc-4 grid5 nofinalgrid verytightscf
|  2>
|  3> %maxcore 1500
|  4>
|  5> %pal nprocs 4 end
|  6>
|  7> %scf
|  8> 	maxiter 200
|  9> end
| 10> %elprop
| 11> 	dipole true
| 12> 	 polar 1
| 13> 	 maxiter 200
| 14> end
| 15>
| 16> * xyz 0 1
| 17> C 0.0000 0.0000 0.0000
| 18> H 0.0000 0.0000 1.0670
| 19> P 0.0000 0.0000 -1.5420
| 20> *
| 21>
| 22>                          ****END OF INPUT****

CARTESIAN COORDINATES (ANGSTROEM)
---------------------------------
  C      0.000000    0.000000    0.000000
  H      0.000000    0.000000    1.067000
  P      0.000000    0.000000   -1.542000

 Total Charge           Charge          ....    0
 Multiplicity           Mult            ....    1
 Number of Electrons    NEL             ....   22
 Basis Dimension        Dim             ....  374

ORBITAL ENERGIES
----------------
                 SPIN UP ORBITALS
  NO   OCC          E(Eh)            E(eV)
   0   1.0000     -76.288409     -2075.9131
   1   1.0000      -9.922751      -270.0118
   2   1.0000      -6.309761      -171.6973
   3   1.0000      -4.525441      -123.1435
   4   1.0000      -4.525441      -123.1435
   5   1.0000      -4.521264      -123.0299
   6   1.0000      -0.650600       -17.7037
   7   1.0000      -0.494455       -13.4548
   8   1.0000      -0.325606        -8.8602
   9   1.0000      -0.259243        -7.0544
  10   1.0000      -0.259243        -7.0544
  11   0.0000      -0.088844        -2.4176
  12   0.0000      -0.088844        -2.4176
  13   0.0000      -0.009954        -0.2708
  14   0.0000       0.001082         0.0294
  15   0.0000       0.016065         0.4371

                 SPIN DOWN ORBITALS
  NO   OCC          E(Eh)            E(eV)
   0   1.0000     -76.288409     -2075.9131
   1   1.0000      -9.922751      -270.0118
   2   1.0000      -6.309761      -171.6973
   3   1.0000      -4.525441      -123.1435
   4   1.0000      -4.525441      -123.1435
   5   1.0000      -4.521264      -123.0299
   6   1.0000      -0.650600       -17.7037
   7   1.0000      -0.494455       -13.4548
   8   1.0000      -0.325606        -8.8602
   9   1.0000      -0.259243        -7.0544
  10   1.0000      -0.259243        -7.0544
  11   0.0000      -0.088844        -2.4176
  12   0.0000      -0.088844        -2.4176
  13   0.0000      -0.009954        -0.2708
  14   0.0000       0.001082         0.0294
  15   0.0000       0.016065         0.4371

MULLIKEN ATOMIC CHARGES AND SPIN POPULATIONS
--------------------------------------------
   0 C :    0.178126    0.000000
   1 H :   -0.148019   -0.000000
   2 P :   -0.030107    0.000000
Sum of atomic charges         :    0.0000000

LOEWDIN ATOMIC CHARGES AND SPIN POPULATIONS
-------------------------------------------
   0 C :   -0.206311    0.000000
   1 H :   -0.863343   -0.000000
   2 P :    1.069654   -0.000000

  Mayer bond orders larger than 0.1
B(  0-C ,  1-H ) :   1.1471 B(  0-C ,  2-P ) :   2.5816 B(  1-H ,  2-P ) :   0.2944

FINAL SINGLE POINT ENERGY      -379.827299033636

DIPOLE MOMENT
-------------
                                X             Y             Z
Electronic contribution:      0.00000       0.00000      -2.28027
Nuclear contribution   :      0.00000       0.00000       2.42622
                        -----------------------------------------
Total Dipole Moment    :      0.00000       0.00000       0.14595
                        -----------------------------------------
Magnitude (a.u.)       :      0.14595
Magnitude (Debye)      :      0.37098

Rotational constants in cm-1:     0.000000     0.667581     0.667581
Rotational constants in MHz :     0.000000 20013.586783 20013.586783

                             ****ORCA TERMINATED NORMALLY****
TOTAL RUN TIME: 0 days 0 hours 28 minutes 53 seconds 584 msec
