                         Program Version 4.1.2  - RELEASE  -
|  1> !uks pbe nori aug-pc-4 grid5 nofinalgrid verytightscf
|  2>
|  3> %maxcore 1500
|  4>
|  5> %pal nprocs 4 end
|  6>
|  7> %scf
|  8> 	maxiter 200
|  9> end
| 10> %elprop
| 11> 	dipole true
| 12> 	 polar 1
| 13> 	 maxiter 200
| 14> end
| 15>
| 16> * xyz 0 1
| 17> F 0.0000 0.0000 0.0000
| 18> H 0.0000 0.0000 0.9168
| 19> *
| 20>
| 21>                          ****END OF INPUT****

CARTESIAN COORDINATES (ANGSTROEM)
---------------------------------
  F      0.000000    0.000000    0.000000
  H      0.000000    0.000000    0.916800

 Total Charge           Charge          ....    0
 Multiplicity           Mult            ....    1
 Number of Electrons    NEL             ....   10
 Basis Dimension        Dim             ....  233

ORBITAL ENERGIES
----------------
                 SPIN UP ORBITALS
  NO   OCC          E(Eh)            E(eV)
   0   1.0000     -24.252751      -659.9509
   1   1.0000      -1.104793       -30.0629
   2   1.0000      -0.495835       -13.4924
   3   1.0000      -0.354688        -9.6516
   4   1.0000      -0.354688        -9.6516
   5   0.0000      -0.035363        -0.9623
   6   0.0000       0.035863         0.9759
   7   0.0000       0.042007         1.1431
   8   0.0000       0.042007         1.1431
   9   0.0000       0.043001         1.1701

                 SPIN DOWN ORBITALS
  NO   OCC          E(Eh)            E(eV)
   0   1.0000     -24.252751      -659.9509
   1   1.0000      -1.104793       -30.0629
   2   1.0000      -0.495835       -13.4924
   3   1.0000      -0.354688        -9.6516
   4   1.0000      -0.354688        -9.6516
   5   0.0000      -0.035363        -0.9623
   6   0.0000       0.035863         0.9759
   7   0.0000       0.042007         1.1431
   8   0.0000       0.042007         1.1431
   9   0.0000       0.043001         1.1701

MULLIKEN ATOMIC CHARGES AND SPIN POPULATIONS
--------------------------------------------
   0 F :   -0.273571    0.000000
   1 H :    0.273571   -0.000000
Sum of atomic charges         :    0.0000000

LOEWDIN ATOMIC CHARGES AND SPIN POPULATIONS
-------------------------------------------
   0 F :    0.963387    0.000000
   1 H :   -0.963387   -0.000000

  Mayer bond orders larger than 0.1
B(  0-F ,  1-H ) :   1.0427

FINAL SINGLE POINT ENERGY      -100.402508639431

DIPOLE MOMENT
-------------
                                X             Y             Z
Electronic contribution:     -0.00000      -0.00000      -0.17283
Nuclear contribution   :      0.00000       0.00000       0.85958
                        -----------------------------------------
Total Dipole Moment    :     -0.00000      -0.00000       0.68675
                        -----------------------------------------
Magnitude (a.u.)       :      0.68675
Magnitude (Debye)      :      1.74559

Rotational constants in cm-1:     0.000000    20.952678    20.952678
Rotational constants in MHz :     0.000000 628145.486789 628145.486789

                             ****ORCA TERMINATED NORMALLY****
TOTAL RUN TIME: 0 days 0 hours 2 minutes 26 seconds 805 msec
