                         Program Version 4.1.2  - RELEASE  -
|  1> !uks pbe nori aug-pc-4 grid5 nofinalgrid verytightscf
|  2>
|  3> %maxcore 1500
|  4>
|  5> %pal nprocs 4 end
|  6>
|  7> %scf
|  8> 	maxiter 200
|  9> end
| 10> %elprop
| 11> 	dipole true
| 12> 	 polar 1
| 13> 	 maxiter 200
| 14> end
| 15>
| 16> * xyz 0 1
| 17> C 0.0000 0.0000 -0.7405
| 18> N 0.0000 0.0000 0.4321
| 19> H 0.0000 0.0000 1.4183
| 20> *
| 21>
| 22>                          ****END OF INPUT****

CARTESIAN COORDINATES (ANGSTROEM)
---------------------------------
  C      0.000000    0.000000   -0.740500
  N      0.000000    0.000000    0.432100
  H      0.000000    0.000000    1.418300

 Total Charge           Charge          ....    0
 Multiplicity           Mult            ....    1
 Number of Electrons    NEL             ....   14
 Basis Dimension        Dim             ....  378

ORBITAL ENERGIES
----------------
                 SPIN UP ORBITALS
  NO   OCC          E(Eh)            E(eV)
   0   1.0000     -14.030788      -381.7971
   1   1.0000      -9.943137      -270.5665
   2   1.0000      -0.874647       -23.8004
   3   1.0000      -0.619349       -16.8533
   4   1.0000      -0.347488        -9.4556
   5   1.0000      -0.347488        -9.4556
   6   1.0000      -0.280326        -7.6280
   7   0.0000      -0.036611        -0.9962
   8   0.0000      -0.036611        -0.9962
   9   0.0000      -0.023745        -0.6461
  10   0.0000       0.011921         0.3244
  11   0.0000       0.017894         0.4869

                 SPIN DOWN ORBITALS
  NO   OCC          E(Eh)            E(eV)
   0   1.0000     -14.030788      -381.7971
   1   1.0000      -9.943137      -270.5665
   2   1.0000      -0.874647       -23.8004
   3   1.0000      -0.619349       -16.8533
   4   1.0000      -0.347488        -9.4556
   5   1.0000      -0.347488        -9.4556
   6   1.0000      -0.280326        -7.6280
   7   0.0000      -0.036611        -0.9962
   8   0.0000      -0.036611        -0.9962
   9   0.0000      -0.023745        -0.6461
  10   0.0000       0.011921         0.3244
  11   0.0000       0.017894         0.4869

MULLIKEN ATOMIC CHARGES AND SPIN POPULATIONS
--------------------------------------------
   0 C :   -0.167600    0.000000
   1 N :   -0.082580   -0.000000
   2 H :    0.250180    0.000000
Sum of atomic charges         :   -0.0000000

LOEWDIN ATOMIC CHARGES AND SPIN POPULATIONS
-------------------------------------------
   0 C :    0.175940    0.000000
   1 N :    0.571402   -0.000000
   2 H :   -0.747341   -0.000000

  Mayer bond orders larger than 0.1
B(  0-C ,  1-N ) :   3.0863 B(  1-N ,  2-H ) :   0.9702

FINAL SINGLE POINT ENERGY       -93.330884744582

DIPOLE MOMENT
-------------
                                X             Y             Z
Electronic contribution:      0.00000       0.00000      -0.17626
Nuclear contribution   :      0.00000       0.00000       1.38230
                        -----------------------------------------
Total Dipole Moment    :      0.00000       0.00000       1.20604
                        -----------------------------------------
Magnitude (a.u.)       :      1.20604
Magnitude (Debye)      :      3.06551

Rotational constants in cm-1:     0.000000     1.511184     1.511184
Rotational constants in MHz :     0.000000 45304.158594 45304.158594

                             ****ORCA TERMINATED NORMALLY****
TOTAL RUN TIME: 0 days 0 hours 19 minutes 15 seconds 634 msec
