                         Program Version 4.1.2  - RELEASE  -
|  1> !uks pbe nori aug-pc-4 grid5 nofinalgrid verytightscf
|  2>
|  3> %maxcore 1500
|  4>
|  5> %pal nprocs 4 end
|  6>
|  7> %scf
|  8> 	maxiter 200
|  9> end
| 10> %elprop
| 11> 	dipole true
| 12> 	 polar 1
| 13> 	 maxiter 200
| 14> end
| 15>
| 16> * xyz 0 1
| 17> H 0.0000 -0.9718 0.9211
| 18> N 0.0000 0.0648 0.5834
| 19> O 0.0000 0.0648 -0.6256
| 20> *
| 21>
| 22>                          ****END OF INPUT****

CARTESIAN COORDINATES (ANGSTROEM)
---------------------------------
  H      0.000000   -0.971800    0.921100
  N      0.000000    0.064800    0.583400
  O      0.000000    0.064800   -0.625600

 Total Charge           Charge          ....    0
 Multiplicity           Mult            ....    1
 Number of Electrons    NEL             ....   16
 Basis Dimension        Dim             ....  378

ORBITAL ENERGIES
----------------
                 SPIN UP ORBITALS
  NO   OCC          E(Eh)            E(eV)
   0   1.0000     -18.839344      -512.6446
   1   1.0000     -14.116277      -384.1234
   2   1.0000      -1.092401       -29.7258
   3   1.0000      -0.659779       -17.9535
   4   1.0000      -0.483457       -13.1555
   5   1.0000      -0.434457       -11.8222
   6   1.0000      -0.404048       -10.9947
   7   1.0000      -0.205710        -5.5977
   8   0.0000      -0.163439        -4.4474
   9   0.0000      -0.026133        -0.7111
  10   0.0000       0.014899         0.4054
  11   0.0000       0.021273         0.5789
  12   0.0000       0.023456         0.6383

                 SPIN DOWN ORBITALS
  NO   OCC          E(Eh)            E(eV)
   0   1.0000     -18.839344      -512.6446
   1   1.0000     -14.116277      -384.1234
   2   1.0000      -1.092401       -29.7258
   3   1.0000      -0.659779       -17.9535
   4   1.0000      -0.483457       -13.1555
   5   1.0000      -0.434457       -11.8222
   6   1.0000      -0.404048       -10.9947
   7   1.0000      -0.205710        -5.5977
   8   0.0000      -0.163439        -4.4474
   9   0.0000      -0.026133        -0.7111
  10   0.0000       0.014899         0.4054
  11   0.0000       0.021273         0.5789
  12   0.0000       0.023456         0.6383

MULLIKEN ATOMIC CHARGES AND SPIN POPULATIONS
--------------------------------------------
   0 H :    0.157376   -0.000000
   1 N :    0.021931   -0.000000
   2 O :   -0.179307    0.000000
Sum of atomic charges         :   -0.0000000

LOEWDIN ATOMIC CHARGES AND SPIN POPULATIONS
-------------------------------------------
   0 H :   -0.619548    0.000000
   1 N :    0.330681   -0.000000
   2 O :    0.288867   -0.000000

  Mayer bond orders larger than 0.1
B(  0-H ,  1-N ) :   0.9178 B(  1-N ,  2-O ) :   1.8809

FINAL SINGLE POINT ENERGY      -130.407473441072

DIPOLE MOMENT
-------------
                                X             Y             Z
Electronic contribution:     -0.00000       0.43945      -0.58556
Nuclear contribution   :      0.00000      -0.94022       0.88620
                        -----------------------------------------
Total Dipole Moment    :     -0.00000      -0.50077       0.30064
                        -----------------------------------------
Magnitude (a.u.)       :      0.58408
Magnitude (Debye)      :      1.48462

Rotational constants in cm-1:    17.606681     1.410914     1.306238
Rotational constants in MHz : 527835.027066 42298.140358 39160.044243

                             ****ORCA TERMINATED NORMALLY****
TOTAL RUN TIME: 0 days 0 hours 20 minutes 16 seconds 164 msec
