                         Program Version 4.1.2  - RELEASE  -
|  1> !uks pbe nori aug-pc-4 grid5 nofinalgrid verytightscf
|  2>
|  3> %maxcore 1500
|  4>
|  5> %pal nprocs 4 end
|  6>
|  7> %scf
|  8> 	maxiter 200
|  9> end
| 10> %elprop
| 11> 	dipole true
| 12> 	 polar 1
| 13> 	 maxiter 200
| 14> end
| 15>
| 16> * xyz 0 1
| 17> N 1.0375899124 0.1438382012 0.0000000000
| 18> S -0.5437813358 -0.0126986493 0.0000000000
| 19> H 1.4373719861 -0.8036890193 0.0000000000
| 20> *
| 21>
| 22>                          ****END OF INPUT****

CARTESIAN COORDINATES (ANGSTROEM)
---------------------------------
  N      1.037590    0.143838    0.000000
  S     -0.543781   -0.012699    0.000000
  H      1.437372   -0.803689    0.000000

 Total Charge           Charge          ....    0
 Multiplicity           Mult            ....    1
 Number of Electrons    NEL             ....   24
 Basis Dimension        Dim             ....  374

ORBITAL ENERGIES
----------------
                 SPIN UP ORBITALS
  NO   OCC          E(Eh)            E(eV)
   0   1.0000     -88.083769     -2396.8812
   1   1.0000     -14.055021      -382.4566
   2   1.0000      -7.719391      -210.0553
   3   1.0000      -5.742946      -156.2735
   4   1.0000      -5.738683      -156.1575
   5   1.0000      -5.727419      -155.8510
   6   1.0000      -0.853445       -23.2234
   7   1.0000      -0.592683       -16.1277
   8   1.0000      -0.423841       -11.5333
   9   1.0000      -0.344037        -9.3617
  10   1.0000      -0.330134        -8.9834
  11   1.0000      -0.195324        -5.3150
  12   0.0000      -0.179123        -4.8742
  13   0.0000      -0.034534        -0.9397
  14   0.0000      -0.007036        -0.1915
  15   0.0000       0.015013         0.4085
  16   0.0000       0.017021         0.4632

                 SPIN DOWN ORBITALS
  NO   OCC          E(Eh)            E(eV)
   0   1.0000     -88.083769     -2396.8812
   1   1.0000     -14.055021      -382.4566
   2   1.0000      -7.719391      -210.0553
   3   1.0000      -5.742946      -156.2735
   4   1.0000      -5.738683      -156.1575
   5   1.0000      -5.727419      -155.8510
   6   1.0000      -0.853445       -23.2234
   7   1.0000      -0.592683       -16.1277
   8   1.0000      -0.423841       -11.5333
   9   1.0000      -0.344037        -9.3617
  10   1.0000      -0.330134        -8.9834
  11   1.0000      -0.195324        -5.3150
  12   0.0000      -0.179123        -4.8742
  13   0.0000      -0.034534        -0.9397
  14   0.0000      -0.007036        -0.1915
  15   0.0000       0.015013         0.4085
  16   0.0000       0.017021         0.4632

MULLIKEN ATOMIC CHARGES AND SPIN POPULATIONS
--------------------------------------------
   0 N :   -0.157970   -0.000000
   1 S :   -0.050547    0.000000
   2 H :    0.208518   -0.000000
Sum of atomic charges         :   -0.0000000

LOEWDIN ATOMIC CHARGES AND SPIN POPULATIONS
-------------------------------------------
   0 N :   -0.193392   -0.000000
   1 S :    1.323353    0.000000
   2 H :   -1.129961   -0.000000

  Mayer bond orders larger than 0.1
B(  0-N ,  1-S ) :   1.9600 B(  0-N ,  2-H ) :   0.9077

FINAL SINGLE POINT ENERGY      -453.297715929345

DIPOLE MOMENT
-------------
                                X             Y             Z
Electronic contribution:     -1.37180       0.24339       0.00000
Nuclear contribution   :      1.39816      -0.76834       0.00000
                        -----------------------------------------
Total Dipole Moment    :      0.02636      -0.52494       0.00000
                        -----------------------------------------
Magnitude (a.u.)       :      0.52561
Magnitude (Debye)      :      1.33598

Rotational constants in cm-1:    19.175351     0.632530     0.612331
Rotational constants in MHz : 574862.568549 18962.761521 18357.219275

                             ****ORCA TERMINATED NORMALLY****
TOTAL RUN TIME: 0 days 0 hours 28 minutes 58 seconds 716 msec
