                         Program Version 4.1.2  - RELEASE  -
|  1> !uks pbe nori aug-pc-4 grid5 nofinalgrid verytightscf
|  2>
|  3> %maxcore 1500
|  4>
|  5> %pal nprocs 4 end
|  6>
|  7> %scf
|  8> 	maxiter 200
|  9> end
| 10> %elprop
| 11> 	dipole true
| 12> 	 polar 1
| 13> 	 maxiter 200
| 14> end
| 15>
| 16> * xyz 0 1
| 17> O 0.0362 0 1.0964
| 18> H -0.9048 0 1.3042
| 19> Cl 0.0362 0 -0.5927
| 20> *
| 21>
| 22>                          ****END OF INPUT****

CARTESIAN COORDINATES (ANGSTROEM)
---------------------------------
  O      0.036200    0.000000    1.096400
  H     -0.904800    0.000000    1.304200
  Cl     0.036200    0.000000   -0.592700

 Total Charge           Charge          ....    0
 Multiplicity           Mult            ....    1
 Number of Electrons    NEL             ....   26
 Basis Dimension        Dim             ....  374

ORBITAL ENERGIES
----------------
                 SPIN UP ORBITALS
  NO   OCC          E(Eh)            E(eV)
   0   1.0000    -100.696205     -2740.0830
   1   1.0000     -18.825295      -512.2623
   2   1.0000      -9.215872      -250.7766
   3   1.0000      -7.043690      -191.6686
   4   1.0000      -7.026590      -191.2032
   5   1.0000      -7.026195      -191.1925
   6   1.0000      -0.993468       -27.0336
   7   1.0000      -0.733434       -19.9578
   8   1.0000      -0.492237       -13.3944
   9   1.0000      -0.408745       -11.1225
  10   1.0000      -0.365635        -9.9494
  11   1.0000      -0.280648        -7.6368
  12   1.0000      -0.243822        -6.6347
  13   0.0000      -0.118254        -3.2178
  14   0.0000      -0.025164        -0.6847
  15   0.0000       0.013626         0.3708
  16   0.0000       0.024356         0.6628
  17   0.0000       0.024477         0.6661

                 SPIN DOWN ORBITALS
  NO   OCC          E(Eh)            E(eV)
   0   1.0000    -100.696205     -2740.0830
   1   1.0000     -18.825295      -512.2623
   2   1.0000      -9.215872      -250.7766
   3   1.0000      -7.043690      -191.6686
   4   1.0000      -7.026590      -191.2032
   5   1.0000      -7.026195      -191.1925
   6   1.0000      -0.993468       -27.0336
   7   1.0000      -0.733434       -19.9578
   8   1.0000      -0.492237       -13.3944
   9   1.0000      -0.408745       -11.1225
  10   1.0000      -0.365635        -9.9494
  11   1.0000      -0.280648        -7.6368
  12   1.0000      -0.243822        -6.6347
  13   0.0000      -0.118254        -3.2178
  14   0.0000      -0.025164        -0.6847
  15   0.0000       0.013626         0.3708
  16   0.0000       0.024356         0.6628
  17   0.0000       0.024477         0.6661

MULLIKEN ATOMIC CHARGES AND SPIN POPULATIONS
--------------------------------------------
   0 O :   -0.063913    0.000000
   1 H :    0.167777   -0.000000
   2 Cl:   -0.103864   -0.000000
Sum of atomic charges         :    0.0000000

LOEWDIN ATOMIC CHARGES AND SPIN POPULATIONS
-------------------------------------------
   0 O :   -0.036803    0.000000
   1 H :   -1.272619    0.000000
   2 Cl:    1.309422   -0.000000

  Mayer bond orders larger than 0.1
B(  0-O ,  1-H ) :   0.9681 B(  0-O ,  2-Cl) :   1.1152 B(  1-H ,  2-Cl) :   0.1230

FINAL SINGLE POINT ENERGY      -535.769460977159

DIPOLE MOMENT
-------------
                                X             Y             Z
Electronic contribution:      0.32113      -0.00000      -1.86539
Nuclear contribution   :     -0.88986       0.00000       2.01931
                        -----------------------------------------
Total Dipole Moment    :     -0.56873      -0.00000       0.15391
                        -----------------------------------------
Magnitude (a.u.)       :      0.58919
Magnitude (Debye)      :      1.49761

Rotational constants in cm-1:    20.426292     0.505285     0.493087
Rotational constants in MHz : 612364.820492 15148.056948 14782.385361

                             ****ORCA TERMINATED NORMALLY****
TOTAL RUN TIME: 0 days 0 hours 23 minutes 40 seconds 990 msec
