                         Program Version 4.1.2  - RELEASE  -
|  1> !uks pbe nori aug-pc-4 grid5 nofinalgrid verytightscf
|  2>
|  3> %maxcore 1500
|  4>
|  5> %pal nprocs 4 end
|  6>
|  7> %scf
|  8> 	maxiter 200
|  9> end
| 10> %elprop
| 11> 	dipole true
| 12> 	 polar 1
| 13> 	 maxiter 200
| 14> end
| 15>
| 16> * xyz 0 1
| 17> O 0.0000 0.7375 -0.0528
| 18> O 0.0000 -0.7375 -0.0528
| 19> H 0.8190 0.8170 0.4220
| 20> H -0.8190 -0.8170 0.4220
| 21> *
| 22>
| 23>                          ****END OF INPUT****

CARTESIAN COORDINATES (ANGSTROEM)
---------------------------------
  O      0.000000    0.737500   -0.052800
  O      0.000000   -0.737500   -0.052800
  H      0.819000    0.817000    0.422000
  H     -0.819000   -0.817000    0.422000

 Total Charge           Charge          ....    0
 Multiplicity           Mult            ....    1
 Number of Electrons    NEL             ....   18
 Basis Dimension        Dim             ....  466

ORBITAL ENERGIES
----------------
                 SPIN UP ORBITALS
  NO   OCC          E(Eh)            E(eV)
   0   1.0000     -18.813133      -511.9314
   1   1.0000     -18.813130      -511.9313
   2   1.0000      -1.038063       -28.2471
   3   1.0000      -0.833927       -22.6923
   4   1.0000      -0.479989       -13.0612
   5   1.0000      -0.455352       -12.3908
   6   1.0000      -0.383977       -10.4485
   7   1.0000      -0.288940        -7.8625
   8   1.0000      -0.237046        -6.4503
   9   0.0000      -0.061633        -1.6771
  10   0.0000      -0.029309        -0.7975
  11   0.0000       0.006056         0.1648
  12   0.0000       0.026628         0.7246
  13   0.0000       0.028377         0.7722

                 SPIN DOWN ORBITALS
  NO   OCC          E(Eh)            E(eV)
   0   1.0000     -18.813133      -511.9314
   1   1.0000     -18.813130      -511.9313
   2   1.0000      -1.038063       -28.2471
   3   1.0000      -0.833927       -22.6923
   4   1.0000      -0.479989       -13.0612
   5   1.0000      -0.455352       -12.3908
   6   1.0000      -0.383977       -10.4485
   7   1.0000      -0.288940        -7.8625
   8   1.0000      -0.237046        -6.4503
   9   0.0000      -0.061633        -1.6771
  10   0.0000      -0.029309        -0.7975
  11   0.0000       0.006056         0.1648
  12   0.0000       0.026628         0.7246
  13   0.0000       0.028377         0.7722

MULLIKEN ATOMIC CHARGES AND SPIN POPULATIONS
--------------------------------------------
   0 O :   -0.179043    0.000000
   1 O :   -0.179044    0.000000
   2 H :    0.179044   -0.000000
   3 H :    0.179043   -0.000000
Sum of atomic charges         :   -0.0000000

LOEWDIN ATOMIC CHARGES AND SPIN POPULATIONS
-------------------------------------------
   0 O :    0.849227    0.000000
   1 O :    0.849227    0.000000
   2 H :   -0.849227    0.000000
   3 H :   -0.849227   -0.000000

  Mayer bond orders larger than 0.1
B(  0-O ,  1-O ) :   0.8615 B(  0-O ,  2-H ) :   1.0025 B(  1-O ,  3-H ) :   1.0025

FINAL SINGLE POINT ENERGY      -151.477677789437

DIPOLE MOMENT
-------------
                                X             Y             Z
Electronic contribution:     -0.00000       0.00000      -0.23874
Nuclear contribution   :      0.00000       0.00000       0.83726
                        -----------------------------------------
Total Dipole Moment    :     -0.00000       0.00000       0.59851
                        -----------------------------------------
Magnitude (a.u.)       :      0.59851
Magnitude (Debye)      :      1.52130

Rotational constants in cm-1:    10.059335     0.874310     0.838613
Rotational constants in MHz : 301571.289951 26211.155064 25140.976012

                             ****ORCA TERMINATED NORMALLY****
TOTAL RUN TIME: 0 days 0 hours 34 minutes 54 seconds 133 msec
