                         Program Version 4.1.2  - RELEASE  -
|  1> !uks pbe nori aug-pc-4 grid5 nofinalgrid verytightscf
|  2>
|  3> %maxcore 1500
|  4>
|  5> %pal nprocs 4 end
|  6>
|  7> %scf
|  8> 	maxiter 200
|  9> end
| 10> %elprop
| 11> 	dipole true
| 12> 	 polar 1
| 13> 	 maxiter 200
| 14> end
| 15>
| 16> * xyz 0 1
| 17> Li 0.0000000000 0.0000000000 -1.4298000000
| 18> B 0.0000000000 0.0000000000 0.5063000000
| 19> H 0.0000000000 0.0000000000 1.6973000000
| 20> H 0.0000000000 1.1405000000 0.0202000000
| 21> H 0.9877000000 -0.5702000000 0.0202000000
| 22> H -0.9877000000 -0.5702000000 0.0202000000
| 23> *
| 24>
| 25>                          ****END OF INPUT****

CARTESIAN COORDINATES (ANGSTROEM)
---------------------------------
  Li     0.000000    0.000000   -1.429800
  B      0.000000    0.000000    0.506300
  H      0.000000    0.000000    1.697300
  H      0.000000    1.140500    0.020200
  H      0.987700   -0.570200    0.020200
  H     -0.987700   -0.570200    0.020200

 Total Charge           Charge          ....    0
 Multiplicity           Mult            ....    1
 Number of Electrons    NEL             ....   12
 Basis Dimension        Dim             ....  580

ORBITAL ENERGIES
----------------
                 SPIN UP ORBITALS
  NO   OCC          E(Eh)            E(eV)
   0   1.0000      -6.417624      -174.6324
   1   1.0000      -1.888477       -51.3881
   2   1.0000      -0.442955       -12.0534
   3   1.0000      -0.256699        -6.9851
   4   1.0000      -0.256690        -6.9849
   5   1.0000      -0.256406        -6.9772
   6   0.0000      -0.062156        -1.6913
   7   0.0000      -0.003008        -0.0819
   8   0.0000      -0.003008        -0.0818
   9   0.0000       0.003864         0.1051
  10   0.0000       0.007963         0.2167

                 SPIN DOWN ORBITALS
  NO   OCC          E(Eh)            E(eV)
   0   1.0000      -6.417624      -174.6324
   1   1.0000      -1.888477       -51.3881
   2   1.0000      -0.442955       -12.0534
   3   1.0000      -0.256699        -6.9851
   4   1.0000      -0.256690        -6.9849
   5   1.0000      -0.256406        -6.9772
   6   0.0000      -0.062156        -1.6913
   7   0.0000      -0.003008        -0.0819
   8   0.0000      -0.003008        -0.0818
   9   0.0000       0.003864         0.1051
  10   0.0000       0.007963         0.2167

MULLIKEN ATOMIC CHARGES AND SPIN POPULATIONS
--------------------------------------------
   0 Li:    0.599375    0.000000
   1 B :   -0.776958   -0.000000
   2 H :   -0.038258    0.000000
   3 H :    0.071534   -0.000000
   4 H :    0.072133    0.000000
   5 H :    0.072174    0.000000
Sum of atomic charges         :    0.0000000

LOEWDIN ATOMIC CHARGES AND SPIN POPULATIONS
-------------------------------------------
   0 Li:    0.352288   -0.000000
   1 B :    0.685311   -0.000000
   2 H :   -0.270526    0.000000
   3 H :   -0.255682   -0.000000
   4 H :   -0.255696    0.000000
   5 H :   -0.255696   -0.000000

  Mayer bond orders larger than 0.1
B(  0-Li,  1-B ) :   0.4630 B(  0-Li,  3-H ) :   0.1465 B(  0-Li,  4-H ) :   0.1478
B(  0-Li,  5-H ) :   0.1477 B(  1-B ,  2-H ) :   1.0304 B(  1-B ,  3-H ) :   0.7976
B(  1-B ,  4-H ) :   0.7959 B(  1-B ,  5-H ) :   0.7959

FINAL SINGLE POINT ENERGY       -34.717178332585

DIPOLE MOMENT
-------------
                                X             Y             Z
Electronic contribution:      0.00000      -0.00011      -5.12910
Nuclear contribution   :      0.00000       0.00008       2.78910
                        -----------------------------------------
Total Dipole Moment    :      0.00000      -0.00003      -2.34000
                        -----------------------------------------
Magnitude (a.u.)       :      2.34000
Magnitude (Debye)      :      5.94782

Rotational constants in cm-1:     4.285861     0.783971     0.783967
Rotational constants in MHz : 128486.884382 23502.848984 23502.731923

                             ****ORCA TERMINATED NORMALLY****
TOTAL RUN TIME: 0 days 1 hours 28 minutes 37 seconds 879 msec
