                         Program Version 4.1.2  - RELEASE  -
|  1> !uks pbe nori aug-pc-4 grid5 nofinalgrid verytightscf
|  2>
|  3> %maxcore 1500
|  4>
|  5> %pal nprocs 4 end
|  6>
|  7> %scf
|  8> 	maxiter 200
|  9> end
| 10> %elprop
| 11> 	dipole true
| 12> 	 polar 1
| 13> 	 maxiter 200
| 14> end
| 15>
| 16> * xyz 0 1
| 17> Li 1.4157454937 -0.6164252897 0.0000000000
| 18> C -0.6780148225 -0.3855159545 0.0000000000
| 19> N -0.0211306712 0.6069412443 0.0000000000
| 20> *
| 21>
| 22>                          ****END OF INPUT****

CARTESIAN COORDINATES (ANGSTROEM)
---------------------------------
  Li     1.415745   -0.616425    0.000000
  C     -0.678015   -0.385516    0.000000
  N     -0.021131    0.606941    0.000000

 Total Charge           Charge          ....    0
 Multiplicity           Mult            ....    1
 Number of Electrons    NEL             ....   16
 Basis Dimension        Dim             ....  373

ORBITAL ENERGIES
----------------
                 SPIN UP ORBITALS
  NO   OCC          E(Eh)            E(eV)
   0   1.0000     -13.939663      -379.3175
   1   1.0000      -9.860839      -268.3271
   2   1.0000      -1.912408       -52.0393
   3   1.0000      -0.778493       -21.1839
   4   1.0000      -0.342771        -9.3273
   5   1.0000      -0.288347        -7.8463
   6   1.0000      -0.269416        -7.3312
   7   1.0000      -0.216231        -5.8839
   8   0.0000      -0.066774        -1.8170
   9   0.0000      -0.028317        -0.7706
  10   0.0000      -0.009881        -0.2689
  11   0.0000       0.003100         0.0844
  12   0.0000       0.008931         0.2430

                 SPIN DOWN ORBITALS
  NO   OCC          E(Eh)            E(eV)
   0   1.0000     -13.939663      -379.3175
   1   1.0000      -9.860839      -268.3271
   2   1.0000      -1.912408       -52.0393
   3   1.0000      -0.778493       -21.1839
   4   1.0000      -0.342771        -9.3273
   5   1.0000      -0.288347        -7.8463
   6   1.0000      -0.269416        -7.3312
   7   1.0000      -0.216231        -5.8839
   8   0.0000      -0.066774        -1.8170
   9   0.0000      -0.028317        -0.7706
  10   0.0000      -0.009881        -0.2689
  11   0.0000       0.003100         0.0844
  12   0.0000       0.008931         0.2430

MULLIKEN ATOMIC CHARGES AND SPIN POPULATIONS
--------------------------------------------
   0 Li:    0.703560   -0.000000
   1 C :   -0.385867   -0.000000
   2 N :   -0.317693    0.000000
Sum of atomic charges         :   -0.0000000

LOEWDIN ATOMIC CHARGES AND SPIN POPULATIONS
-------------------------------------------
   0 Li:    0.106568   -0.000000
   1 C :   -0.113620   -0.000000
   2 N :    0.007052    0.000000

  Mayer bond orders larger than 0.1
B(  0-Li,  1-C ) :   0.1272 B(  0-Li,  2-N ) :   0.3575 B(  1-C ,  2-N ) :   2.4565

FINAL SINGLE POINT ENERGY      -100.284847221319

DIPOLE MOMENT
-------------
                                X             Y             Z
Electronic contribution:      3.71928      -1.49217       0.00000
Nuclear contribution   :     -1.21344       0.53686       0.00000
                        -----------------------------------------
Total Dipole Moment    :      2.50584      -0.95531       0.00000
                        -----------------------------------------
Magnitude (a.u.)       :      2.68176
Magnitude (Debye)      :      6.81650

Rotational constants in cm-1:     1.939920     0.831697     0.582124
Rotational constants in MHz : 58157.349324 24933.635650 17451.642424

                             ****ORCA TERMINATED NORMALLY****
TOTAL RUN TIME: 0 days 0 hours 28 minutes 29 seconds 641 msec
