                         Program Version 4.1.2  - RELEASE  -
|  1> !uks pbe nori aug-pc-4 grid5 nofinalgrid verytightscf
|  2>
|  3> %maxcore 1500
|  4>
|  5> %pal nprocs 4 end
|  6>
|  7> %scf
|  8> 	maxiter 200
|  9> end
| 10> %elprop
| 11> 	dipole true
| 12> 	 polar 1
| 13> 	 maxiter 200
| 14> end
| 15>
| 16> * xyz 0 1
| 17> Li 0.0000 0.0000 0.0000
| 18> H 0.0000 0.0000 1.5949
| 19> *
| 20>
| 21>                          ****END OF INPUT****

CARTESIAN COORDINATES (ANGSTROEM)
---------------------------------
  Li     0.000000    0.000000    0.000000
  H      0.000000    0.000000    1.594900

 Total Charge           Charge          ....    0
 Multiplicity           Mult            ....    1
 Number of Electrons    NEL             ....    4
 Basis Dimension        Dim             ....  171

ORBITAL ENERGIES
----------------
                 SPIN UP ORBITALS
  NO   OCC          E(Eh)            E(eV)
   0   1.0000      -1.868417       -50.8422
   1   1.0000      -0.160296        -4.3619
   2   0.0000      -0.058843        -1.6012
   3   0.0000      -0.016373        -0.4455
   4   0.0000      -0.016373        -0.4455
   5   0.0000       0.003641         0.0991
   6   0.0000       0.011478         0.3123

                 SPIN DOWN ORBITALS
  NO   OCC          E(Eh)            E(eV)
   0   1.0000      -1.868417       -50.8422
   1   1.0000      -0.160296        -4.3619
   2   0.0000      -0.058843        -1.6012
   3   0.0000      -0.016373        -0.4455
   4   0.0000      -0.016373        -0.4455
   5   0.0000       0.003641         0.0991
   6   0.0000       0.011478         0.3123

MULLIKEN ATOMIC CHARGES AND SPIN POPULATIONS
--------------------------------------------
   0 Li:    0.560888    0.000000
   1 H :   -0.560888   -0.000000
Sum of atomic charges         :    0.0000000

LOEWDIN ATOMIC CHARGES AND SPIN POPULATIONS
-------------------------------------------
   0 Li:    0.265623    0.000000
   1 H :   -0.265623   -0.000000

  Mayer bond orders larger than 0.1
B(  0-Li,  1-H ) :   0.7346

FINAL SINGLE POINT ENERGY        -8.047324468677

DIPOLE MOMENT
-------------
                                X             Y             Z
Electronic contribution:      0.00000      -0.00000      -3.69445
Nuclear contribution   :      0.00000       0.00000       1.48516
                        -----------------------------------------
Total Dipole Moment    :      0.00000      -0.00000      -2.20929
                        -----------------------------------------
Magnitude (a.u.)       :      2.20929
Magnitude (Debye)      :      5.61556

Rotational constants in cm-1:     0.000000     7.529392     7.529392
Rotational constants in MHz :     0.000000 225725.492015 225725.492015

                             ****ORCA TERMINATED NORMALLY****
TOTAL RUN TIME: 0 days 0 hours 1 minutes 2 seconds 750 msec
