                         Program Version 4.1.2  - RELEASE  -
|  1> !uks pbe nori aug-pc-4 grid5 nofinalgrid verytightscf
|  2>
|  3> %maxcore 1500
|  4>
|  5> %pal nprocs 4 end
|  6>
|  7> %scf
|  8> 	maxiter 200
|  9> end
| 10> %elprop
| 11> 	dipole true
| 12> 	 polar 1
| 13> 	 maxiter 200
| 14> end
| 15>
| 16> * xyz 0 1
| 17> Mg 0.0000 0.0000 0.0000
| 18> Mg 0.0000 0.0000 3.8905
| 19> *
| 20>
| 21>                          ****END OF INPUT****

CARTESIAN COORDINATES (ANGSTROEM)
---------------------------------
  Mg     0.000000    0.000000    0.000000
  Mg     0.000000    0.000000    3.890500

 Total Charge           Charge          ....    0
 Multiplicity           Mult            ....    1
 Number of Electrons    NEL             ....   24
 Basis Dimension        Dim             ....  170

ORBITAL ENERGIES
----------------
                 SPIN UP ORBITALS
  NO   OCC          E(Eh)            E(eV)
   0   1.0000     -46.189348     -1256.8761
   1   1.0000     -46.189348     -1256.8761
   2   1.0000      -2.923338       -79.5481
   3   1.0000      -2.923337       -79.5481
   4   1.0000      -1.714147       -46.6443
   5   1.0000      -1.714147       -46.6443
   6   1.0000      -1.714146       -46.6443
   7   1.0000      -1.714146       -46.6443
   8   1.0000      -1.713682       -46.6316
   9   1.0000      -1.713658       -46.6310
  10   1.0000      -0.192651        -5.2423
  11   1.0000      -0.157711        -4.2915
  12   0.0000      -0.068280        -1.8580
  13   0.0000      -0.063364        -1.7242
  14   0.0000      -0.063364        -1.7242
  15   0.0000      -0.034573        -0.9408
  16   0.0000      -0.034573        -0.9408

                 SPIN DOWN ORBITALS
  NO   OCC          E(Eh)            E(eV)
   0   1.0000     -46.189348     -1256.8761
   1   1.0000     -46.189348     -1256.8761
   2   1.0000      -2.923338       -79.5481
   3   1.0000      -2.923337       -79.5481
   4   1.0000      -1.714147       -46.6443
   5   1.0000      -1.714147       -46.6443
   6   1.0000      -1.714146       -46.6443
   7   1.0000      -1.714146       -46.6443
   8   1.0000      -1.713682       -46.6316
   9   1.0000      -1.713658       -46.6310
  10   1.0000      -0.192651        -5.2423
  11   1.0000      -0.157711        -4.2915
  12   0.0000      -0.068280        -1.8580
  13   0.0000      -0.063364        -1.7242
  14   0.0000      -0.063364        -1.7242
  15   0.0000      -0.034573        -0.9408
  16   0.0000      -0.034573        -0.9408

MULLIKEN ATOMIC CHARGES AND SPIN POPULATIONS
--------------------------------------------
   0 Mg:   -0.000000   -0.000000
   1 Mg:    0.000000    0.000000
Sum of atomic charges         :    0.0000000

LOEWDIN ATOMIC CHARGES AND SPIN POPULATIONS
-------------------------------------------
   0 Mg:   -0.000000    0.000000
   1 Mg:    0.000000   -0.000000

  Mayer bond orders larger than 0.1
B(  0-Mg,  1-Mg) :   0.4666

FINAL SINGLE POINT ENERGY      -399.913849440620

DIPOLE MOMENT
-------------
                                X             Y             Z
Electronic contribution:      0.00000       0.00000       0.00000
Nuclear contribution   :      0.00000       0.00000       0.00000
                        -----------------------------------------
Total Dipole Moment    :      0.00000       0.00000       0.00000
                        -----------------------------------------
Magnitude (a.u.)       :      0.00000
Magnitude (Debye)      :      0.00000

Rotational constants in cm-1:     0.000000     0.091647     0.091647
Rotational constants in MHz :     0.000000  2747.521724  2747.521724

                             ****ORCA TERMINATED NORMALLY****
TOTAL RUN TIME: 0 days 0 hours 1 minutes 21 seconds 367 msec
