                         Program Version 4.1.2  - RELEASE  -
|  1> !uks pbe nori aug-pc-4 grid5 nofinalgrid verytightscf
|  2>
|  3> %maxcore 1500
|  4>
|  5> %pal nprocs 4 end
|  6>
|  7> %scf
|  8> 	maxiter 200
|  9> end
| 10> %elprop
| 11> 	dipole true
| 12> 	 polar 1
| 13> 	 maxiter 200
| 14> end
| 15>
| 16> * xyz 0 1
| 17> Mg 0.0 0.0 0.0
| 18> *
| 19>
| 20>                          ****END OF INPUT****

CARTESIAN COORDINATES (ANGSTROEM)
---------------------------------
  Mg     0.000000    0.000000    0.000000

 Total Charge           Charge          ....    0
 Multiplicity           Mult            ....    1
 Number of Electrons    NEL             ....   12
 Basis Dimension        Dim             ....   85

ORBITAL ENERGIES
----------------
                 SPIN UP ORBITALS
  NO   OCC          E(Eh)            E(eV)
   0   1.0000     -46.188374     -1256.8495
   1   1.0000      -2.922318       -79.5203
   2   1.0000      -1.713001       -46.6131
   3   1.0000      -1.713001       -46.6131
   4   1.0000      -1.713001       -46.6131
   5   1.0000      -0.172684        -4.6990
   6   0.0000      -0.049181        -1.3383
   7   0.0000      -0.049181        -1.3383
   8   0.0000      -0.049181        -1.3383
   9   0.0000      -0.000609        -0.0166
  10   0.0000       0.018812         0.5119

                 SPIN DOWN ORBITALS
  NO   OCC          E(Eh)            E(eV)
   0   1.0000     -46.188374     -1256.8495
   1   1.0000      -2.922318       -79.5203
   2   1.0000      -1.713001       -46.6131
   3   1.0000      -1.713001       -46.6131
   4   1.0000      -1.713001       -46.6131
   5   1.0000      -0.172684        -4.6990
   6   0.0000      -0.049181        -1.3383
   7   0.0000      -0.049181        -1.3383
   8   0.0000      -0.049181        -1.3383
   9   0.0000      -0.000609        -0.0166
  10   0.0000       0.018812         0.5119

MULLIKEN ATOMIC CHARGES AND SPIN POPULATIONS
--------------------------------------------
   0 Mg:   -0.000000    0.000000
Sum of atomic charges         :   -0.0000000

LOEWDIN ATOMIC CHARGES AND SPIN POPULATIONS
-------------------------------------------
   0 Mg:   -0.000000    0.000000

FINAL SINGLE POINT ENERGY      -199.954761865022

DIPOLE MOMENT
-------------
                                X             Y             Z
Electronic contribution:     -0.00000       0.00000       0.00000
Nuclear contribution   :      0.00000       0.00000       0.00000
                        -----------------------------------------
Total Dipole Moment    :     -0.00000       0.00000       0.00000
                        -----------------------------------------
Magnitude (a.u.)       :      0.00000
Magnitude (Debye)      :      0.00000

Rotational constants in cm-1:     0.000000     0.000000     0.000000
Rotational constants in MHz :     0.000000     0.000000     0.000000

                             ****ORCA TERMINATED NORMALLY****
TOTAL RUN TIME: 0 days 0 hours 0 minutes 45 seconds 56 msec
