                         Program Version 4.1.2  - RELEASE  -
|  1> !uks pbe nori aug-pc-4 grid5 nofinalgrid verytightscf
|  2>
|  3> %maxcore 1500
|  4>
|  5> %pal nprocs 4 end
|  6>
|  7> %scf
|  8> 	maxiter 200
|  9> end
| 10> %elprop
| 11> 	dipole true
| 12> 	 polar 1
| 13> 	 maxiter 200
| 14> end
| 15>
| 16> * xyz 0 1
| 17> N 0.0000 0.0000 0.5488
| 18> N 0.0000 0.0000 -0.5488
| 19> *
| 20>
| 21>                          ****END OF INPUT****

CARTESIAN COORDINATES (ANGSTROEM)
---------------------------------
  N      0.000000    0.000000    0.548800
  N      0.000000    0.000000   -0.548800

 Total Charge           Charge          ....    0
 Multiplicity           Mult            ....    1
 Number of Electrons    NEL             ....   14
 Basis Dimension        Dim             ....  290

ORBITAL ENERGIES
----------------
                 SPIN UP ORBITALS
  NO   OCC          E(Eh)            E(eV)
   0   1.0000     -14.082923      -383.2158
   1   1.0000     -14.081593      -383.1796
   2   1.0000      -1.038118       -28.2486
   3   1.0000      -0.495823       -13.4920
   4   1.0000      -0.427736       -11.6393
   5   1.0000      -0.427736       -11.6393
   6   1.0000      -0.377286       -10.2665
   7   0.0000      -0.071911        -1.9568
   8   0.0000      -0.071911        -1.9568
   9   0.0000       0.005847         0.1591
  10   0.0000       0.022005         0.5988
  11   0.0000       0.026813         0.7296

                 SPIN DOWN ORBITALS
  NO   OCC          E(Eh)            E(eV)
   0   1.0000     -14.082923      -383.2158
   1   1.0000     -14.081593      -383.1796
   2   1.0000      -1.038118       -28.2486
   3   1.0000      -0.495823       -13.4920
   4   1.0000      -0.427736       -11.6393
   5   1.0000      -0.427736       -11.6393
   6   1.0000      -0.377286       -10.2665
   7   0.0000      -0.071911        -1.9568
   8   0.0000      -0.071911        -1.9568
   9   0.0000       0.005847         0.1591
  10   0.0000       0.022005         0.5988
  11   0.0000       0.026813         0.7296

MULLIKEN ATOMIC CHARGES AND SPIN POPULATIONS
--------------------------------------------
   0 N :    0.000005   -0.000000
   1 N :   -0.000005    0.000000
Sum of atomic charges         :    0.0000000

LOEWDIN ATOMIC CHARGES AND SPIN POPULATIONS
-------------------------------------------
   0 N :    0.000000   -0.000000
   1 N :   -0.000000    0.000000

  Mayer bond orders larger than 0.1
B(  0-N ,  1-N ) :   2.6879

FINAL SINGLE POINT ENERGY      -109.460225563899

DIPOLE MOMENT
-------------
                                X             Y             Z
Electronic contribution:      0.00000      -0.00000       0.00000
Nuclear contribution   :      0.00000       0.00000       0.00000
                        -----------------------------------------
Total Dipole Moment    :      0.00000      -0.00000       0.00000
                        -----------------------------------------
Magnitude (a.u.)       :      0.00000
Magnitude (Debye)      :      0.00000

Rotational constants in cm-1:     0.000000     1.997991     1.997991
Rotational constants in MHz :     0.000000 59898.269323 59898.269323

                             ****ORCA TERMINATED NORMALLY****
TOTAL RUN TIME: 0 days 0 hours 6 minutes 31 seconds 722 msec
