                         Program Version 4.1.2  - RELEASE  -
|  1> !uks pbe nori aug-pc-4 grid5 nofinalgrid verytightscf
|  2>
|  3> %maxcore 1500
|  4>
|  5> %pal nprocs 4 end
|  6>
|  7> %scf
|  8> 	maxiter 200
|  9> end
| 10> %elprop
| 11> 	dipole true
| 12> 	 polar 1
| 13> 	 maxiter 200
| 14> end
| 15>
| 16> * xyz 0 1
| 17> N 0.0000000000 0.0000000000 0.0000000000
| 18> H 0.0000000000 0.0000000000 1.0337770000
| 19> N 1.1649590602 0.0000000000 -0.4597566182
| 20> H 1.8709666930 0.0000000000 0.2953911212
| 21> *
| 22>
| 23>                          ****END OF INPUT****

CARTESIAN COORDINATES (ANGSTROEM)
---------------------------------
  N      0.000000    0.000000    0.000000
  H      0.000000    0.000000    1.033777
  N      1.164959    0.000000   -0.459757
  H      1.870967    0.000000    0.295391

 Total Charge           Charge          ....    0
 Multiplicity           Mult            ....    1
 Number of Electrons    NEL             ....   16
 Basis Dimension        Dim             ....  466

ORBITAL ENERGIES
----------------
                 SPIN UP ORBITALS
  NO   OCC          E(Eh)            E(eV)
   0   1.0000     -14.049879      -382.3167
   1   1.0000     -14.049617      -382.3095
   2   1.0000      -0.954469       -25.9724
   3   1.0000      -0.628062       -17.0904
   4   1.0000      -0.518151       -14.0996
   5   1.0000      -0.367984       -10.0133
   6   1.0000      -0.337023        -9.1709
   7   1.0000      -0.215481        -5.8635
   8   0.0000      -0.115512        -3.1432
   9   0.0000      -0.037831        -1.0294
  10   0.0000       0.003266         0.0889
  11   0.0000       0.020096         0.5469
  12   0.0000       0.022374         0.6088

                 SPIN DOWN ORBITALS
  NO   OCC          E(Eh)            E(eV)
   0   1.0000     -14.049879      -382.3167
   1   1.0000     -14.049617      -382.3095
   2   1.0000      -0.954469       -25.9724
   3   1.0000      -0.628062       -17.0904
   4   1.0000      -0.518151       -14.0996
   5   1.0000      -0.367984       -10.0133
   6   1.0000      -0.337023        -9.1709
   7   1.0000      -0.215481        -5.8635
   8   0.0000      -0.115512        -3.1432
   9   0.0000      -0.037831        -1.0294
  10   0.0000       0.003266         0.0889
  11   0.0000       0.020096         0.5469
  12   0.0000       0.022374         0.6088

MULLIKEN ATOMIC CHARGES AND SPIN POPULATIONS
--------------------------------------------
   0 N :   -0.102067    0.000000
   1 H :    0.102053   -0.000000
   2 N :   -0.101778    0.000000
   3 H :    0.101792   -0.000000
Sum of atomic charges         :   -0.0000000

LOEWDIN ATOMIC CHARGES AND SPIN POPULATIONS
-------------------------------------------
   0 N :    0.637884   -0.000000
   1 H :   -0.637886    0.000000
   2 N :    0.637887    0.000000
   3 H :   -0.637885   -0.000000

  Mayer bond orders larger than 0.1
B(  0-N ,  1-H ) :   0.9984 B(  0-N ,  2-N ) :   1.6084 B(  2-N ,  3-H ) :   0.9985

FINAL SINGLE POINT ENERGY      -110.565471134837

DIPOLE MOMENT
-------------
                                X             Y             Z
Electronic contribution:     -0.21828      -0.00000      -0.55310
Nuclear contribution   :      0.61763       0.00000       1.56499
                        -----------------------------------------
Total Dipole Moment    :      0.39935      -0.00000       1.01189
                        -----------------------------------------
Magnitude (a.u.)       :      1.08785
Magnitude (Debye)      :      2.76509

Rotational constants in cm-1:     9.693880     1.294345     1.141879
Rotational constants in MHz : 290615.212533 38803.474450 34232.666269

                             ****ORCA TERMINATED NORMALLY****
TOTAL RUN TIME: 0 days 0 hours 37 minutes 4 seconds 405 msec
