                         Program Version 4.1.2  - RELEASE  -
|  1> !uks pbe nori aug-pc-4 grid5 nofinalgrid verytightscf
|  2>
|  3> %maxcore 1500
|  4>
|  5> %pal nprocs 4 end
|  6>
|  7> %scf
|  8> 	maxiter 200
|  9> end
| 10> %elprop
| 11> 	dipole true
| 12> 	 polar 1
| 13> 	 maxiter 200
| 14> end
| 15>
| 16> * xyz 0 1
| 17> N 0.0000 0.7230 -0.1123
| 18> N 0.0000 -0.7230 -0.1123
| 19> H -0.4470 1.0031 0.7562
| 20> H 0.4470 -1.0031 0.7562
| 21> H 0.9663 1.0031 0.0301
| 22> H -0.9663 -1.0031 0.0301
| 23> *
| 24>
| 25>                          ****END OF INPUT****

CARTESIAN COORDINATES (ANGSTROEM)
---------------------------------
  N      0.000000    0.723000   -0.112300
  N      0.000000   -0.723000   -0.112300
  H     -0.447000    1.003100    0.756200
  H      0.447000   -1.003100    0.756200
  H      0.966300    1.003100    0.030100
  H     -0.966300   -1.003100    0.030100

 Total Charge           Charge          ....    0
 Multiplicity           Mult            ....    1
 Number of Electrons    NEL             ....   18
 Basis Dimension        Dim             ....  642

ORBITAL ENERGIES
----------------
                 SPIN UP ORBITALS
  NO   OCC          E(Eh)            E(eV)
   0   1.0000     -13.996000      -380.8505
   1   1.0000     -13.995965      -380.8496
   2   1.0000      -0.880076       -23.9481
   3   1.0000      -0.684905       -18.6372
   4   1.0000      -0.461398       -12.5553
   5   1.0000      -0.442672       -12.0457
   6   1.0000      -0.391128       -10.6431
   7   1.0000      -0.252598        -6.8735
   8   1.0000      -0.194736        -5.2990
   9   0.0000      -0.035231        -0.9587
  10   0.0000      -0.005542        -0.1508
  11   0.0000       0.005950         0.1619
  12   0.0000       0.015081         0.4104
  13   0.0000       0.030688         0.8351

                 SPIN DOWN ORBITALS
  NO   OCC          E(Eh)            E(eV)
   0   1.0000     -13.996000      -380.8505
   1   1.0000     -13.995965      -380.8496
   2   1.0000      -0.880076       -23.9481
   3   1.0000      -0.684905       -18.6372
   4   1.0000      -0.461398       -12.5553
   5   1.0000      -0.442672       -12.0457
   6   1.0000      -0.391128       -10.6431
   7   1.0000      -0.252598        -6.8735
   8   1.0000      -0.194736        -5.2990
   9   0.0000      -0.035231        -0.9587
  10   0.0000      -0.005542        -0.1508
  11   0.0000       0.005950         0.1619
  12   0.0000       0.015081         0.4104
  13   0.0000       0.030688         0.8351

MULLIKEN ATOMIC CHARGES AND SPIN POPULATIONS
--------------------------------------------
   0 N :   -0.271655   -0.000000
   1 N :   -0.271675    0.000000
   2 H :    0.110246   -0.000000
   3 H :    0.110202   -0.000000
   4 H :    0.161436   -0.000000
   5 H :    0.161446    0.000000
Sum of atomic charges         :    0.0000000

LOEWDIN ATOMIC CHARGES AND SPIN POPULATIONS
-------------------------------------------
   0 N :    1.043645   -0.000000
   1 N :    1.043645   -0.000000
   2 H :   -0.526216   -0.000000
   3 H :   -0.526216   -0.000000
   4 H :   -0.517430   -0.000000
   5 H :   -0.517430    0.000000

  Mayer bond orders larger than 0.1
B(  0-N ,  1-N ) :   0.7301 B(  0-N ,  2-H ) :   1.0241 B(  0-N ,  4-H ) :   0.9914
B(  1-N ,  3-H ) :   1.0241 B(  1-N ,  5-H ) :   0.9913

FINAL SINGLE POINT ENERGY      -111.787748375934

DIPOLE MOMENT
-------------
                                X             Y             Z
Electronic contribution:      0.00000      -0.00000      -0.62004
Nuclear contribution   :      0.00000       0.00000       1.65745
                        -----------------------------------------
Total Dipole Moment    :      0.00000      -0.00000       1.03741
                        -----------------------------------------
Magnitude (a.u.)       :      1.03741
Magnitude (Debye)      :      2.63689

Rotational constants in cm-1:     4.618223     0.834553     0.803281
Rotational constants in MHz : 138450.849442 25019.276706 24081.751523

                             ****ORCA TERMINATED NORMALLY****
TOTAL RUN TIME: 0 days 1 hours 54 minutes 38 seconds 517 msec
