                         Program Version 4.1.2  - RELEASE  -
|  1> !uks pbe nori aug-pc-4 grid5 nofinalgrid verytightscf
|  2>
|  3> %maxcore 1500
|  4>
|  5> %pal nprocs 4 end
|  6>
|  7> %scf
|  8> 	maxiter 200
|  9> end
| 10> %elprop
| 11> 	dipole true
| 12> 	 polar 1
| 13> 	 maxiter 200
| 14> end
| 15>
| 16> * xyz 0 1
| 17> Na 0.0000 0.0000 0.0000
| 18> Na 0.0000 0.0000 3.0789
| 19> *
| 20>
| 21>                          ****END OF INPUT****

CARTESIAN COORDINATES (ANGSTROEM)
---------------------------------
  Na     0.000000    0.000000    0.000000
  Na     0.000000    0.000000    3.078900

 Total Charge           Charge          ....    0
 Multiplicity           Mult            ....    1
 Number of Electrons    NEL             ....   22
 Basis Dimension        Dim             ....  170

ORBITAL ENERGIES
----------------
                 SPIN UP ORBITALS
  NO   OCC          E(Eh)            E(eV)
   0   1.0000     -37.890775     -1031.0604
   1   1.0000     -37.890775     -1031.0604
   2   1.0000      -2.056913       -55.9715
   3   1.0000      -2.056768       -55.9675
   4   1.0000      -1.033845       -28.1324
   5   1.0000      -1.032897       -28.1065
   6   1.0000      -1.032897       -28.1065
   7   1.0000      -1.032662       -28.1002
   8   1.0000      -1.032662       -28.1002
   9   1.0000      -1.031770       -28.0759
  10   1.0000      -0.114867        -3.1257
  11   0.0000      -0.065305        -1.7770
  12   0.0000      -0.035048        -0.9537
  13   0.0000      -0.035048        -0.9537
  14   0.0000      -0.018721        -0.5094
  15   0.0000       0.000831         0.0226

                 SPIN DOWN ORBITALS
  NO   OCC          E(Eh)            E(eV)
   0   1.0000     -37.890775     -1031.0604
   1   1.0000     -37.890775     -1031.0604
   2   1.0000      -2.056913       -55.9715
   3   1.0000      -2.056768       -55.9675
   4   1.0000      -1.033845       -28.1324
   5   1.0000      -1.032897       -28.1065
   6   1.0000      -1.032897       -28.1065
   7   1.0000      -1.032662       -28.1002
   8   1.0000      -1.032662       -28.1002
   9   1.0000      -1.031770       -28.0759
  10   1.0000      -0.114867        -3.1257
  11   0.0000      -0.065305        -1.7770
  12   0.0000      -0.035048        -0.9537
  13   0.0000      -0.035048        -0.9537
  14   0.0000      -0.018721        -0.5094
  15   0.0000       0.000831         0.0226

MULLIKEN ATOMIC CHARGES AND SPIN POPULATIONS
--------------------------------------------
   0 Na:   -0.000015   -0.000000
   1 Na:    0.000015    0.000000
Sum of atomic charges         :   -0.0000000

LOEWDIN ATOMIC CHARGES AND SPIN POPULATIONS
-------------------------------------------
   0 Na:   -0.000000   -0.000000
   1 Na:    0.000000    0.000000

  Mayer bond orders larger than 0.1
B(  0-Na,  1-Na) :   1.0030

FINAL SINGLE POINT ENERGY      -324.372734338220

DIPOLE MOMENT
-------------
                                X             Y             Z
Electronic contribution:     -0.00000      -0.00000       0.00000
Nuclear contribution   :      0.00000       0.00000       0.00000
                        -----------------------------------------
Total Dipole Moment    :     -0.00000      -0.00000       0.00000
                        -----------------------------------------
Magnitude (a.u.)       :      0.00000
Magnitude (Debye)      :      0.00000

Rotational constants in cm-1:     0.000000     0.154702     0.154702
Rotational constants in MHz :     0.000000  4637.858146  4637.858146

                             ****ORCA TERMINATED NORMALLY****
TOTAL RUN TIME: 0 days 0 hours 1 minutes 37 seconds 349 msec
