                         Program Version 4.1.2  - RELEASE  -
|  1> !uks pbe nori aug-pc-4 grid5 nofinalgrid verytightscf
|  2>
|  3> %maxcore 1500
|  4>
|  5> %pal nprocs 4 end
|  6>
|  7> %scf
|  8> 	maxiter 200
|  9> end
| 10> %elprop
| 11> 	dipole true
| 12> 	 polar 1
| 13> 	 maxiter 200
| 14> end
| 15>
| 16> * xyz 0 2
| 17> Na 0.0 0.0 0.0
| 18> *
| 19>
| 20>                          ****END OF INPUT****

CARTESIAN COORDINATES (ANGSTROEM)
---------------------------------
  Na     0.000000    0.000000    0.000000

 Total Charge           Charge          ....    0
 Multiplicity           Mult            ....    2
 Number of Electrons    NEL             ....   11
 Basis Dimension        Dim             ....   85

ORBITAL ENERGIES
----------------
                 SPIN UP ORBITALS
  NO   OCC          E(Eh)            E(eV)
   0   1.0000     -37.907175     -1031.5067
   1   1.0000      -2.073721       -56.4288
   2   1.0000      -1.049853       -28.5679
   3   1.0000      -1.049853       -28.5679
   4   1.0000      -1.049853       -28.5679
   5   1.0000      -0.111486        -3.0337
   6   0.0000      -0.034529        -0.9396
   7   0.0000      -0.034529        -0.9396
   8   0.0000      -0.034529        -0.9396
   9   0.0000      -0.004819        -0.1311
  10   0.0000       0.010760         0.2928

                 SPIN DOWN ORBITALS
  NO   OCC          E(Eh)            E(eV)
   0   1.0000     -37.906221     -1031.4807
   1   1.0000      -2.071140       -56.3586
   2   1.0000      -1.046666       -28.4812
   3   1.0000      -1.046666       -28.4812
   4   1.0000      -1.046666       -28.4812
   5   0.0000      -0.051448        -1.4000
   6   0.0000       0.007948         0.2163
   7   0.0000       0.013286         0.3615
   8   0.0000       0.013286         0.3615
   9   0.0000       0.013286         0.3615

MULLIKEN ATOMIC CHARGES AND SPIN POPULATIONS
--------------------------------------------
   0 Na:    0.000000    1.000000
Sum of atomic charges         :    0.0000000

LOEWDIN ATOMIC CHARGES AND SPIN POPULATIONS
-------------------------------------------
   0 Na:    0.000000    1.000000

FINAL SINGLE POINT ENERGY      -162.172297148413

DIPOLE MOMENT
-------------
                                X             Y             Z
Electronic contribution:     -0.00000       0.00000       0.00000
Nuclear contribution   :      0.00000       0.00000       0.00000
                        -----------------------------------------
Total Dipole Moment    :     -0.00000       0.00000       0.00000
                        -----------------------------------------
Magnitude (a.u.)       :      0.00000
Magnitude (Debye)      :      0.00000

Rotational constants in cm-1:     0.000000     0.000000     0.000000
Rotational constants in MHz :     0.000000     0.000000     0.000000

                             ****ORCA TERMINATED NORMALLY****
TOTAL RUN TIME: 0 days 0 hours 0 minutes 13 seconds 3 msec
