                         Program Version 4.1.2  - RELEASE  -
|  1> !uks pbe nori aug-pc-4 grid5 nofinalgrid verytightscf
|  2>
|  3> %maxcore 1500
|  4>
|  5> %pal nprocs 4 end
|  6>
|  7> %scf
|  8> 	maxiter 200
|  9> end
| 10> %elprop
| 11> 	dipole true
| 12> 	 polar 1
| 13> 	 maxiter 200
| 14> end
| 15>
| 16> * xyz 0 1
| 17> Na 0.0000 0.0000 0.0000
| 18> H 0.0000 0.0000 1.8874
| 19> *
| 20>
| 21>                          ****END OF INPUT****

CARTESIAN COORDINATES (ANGSTROEM)
---------------------------------
  Na     0.000000    0.000000    0.000000
  H      0.000000    0.000000    1.887400

 Total Charge           Charge          ....    0
 Multiplicity           Mult            ....    1
 Number of Electrons    NEL             ....   12
 Basis Dimension        Dim             ....  173

ORBITAL ENERGIES
----------------
                 SPIN UP ORBITALS
  NO   OCC          E(Eh)            E(eV)
   0   1.0000     -37.896394     -1031.2133
   1   1.0000      -2.064290       -56.1722
   2   1.0000      -1.041010       -28.3273
   3   1.0000      -1.041010       -28.3273
   4   1.0000      -1.037992       -28.2452
   5   1.0000      -0.155673        -4.2361
   6   0.0000      -0.066584        -1.8118
   7   0.0000      -0.013823        -0.3762
   8   0.0000      -0.013823        -0.3762
   9   0.0000       0.001191         0.0324
  10   0.0000       0.008754         0.2382

                 SPIN DOWN ORBITALS
  NO   OCC          E(Eh)            E(eV)
   0   1.0000     -37.896394     -1031.2133
   1   1.0000      -2.064290       -56.1722
   2   1.0000      -1.041010       -28.3273
   3   1.0000      -1.041010       -28.3273
   4   1.0000      -1.037992       -28.2452
   5   1.0000      -0.155673        -4.2361
   6   0.0000      -0.066584        -1.8118
   7   0.0000      -0.013823        -0.3762
   8   0.0000      -0.013823        -0.3762
   9   0.0000       0.001191         0.0324
  10   0.0000       0.008754         0.2382

MULLIKEN ATOMIC CHARGES AND SPIN POPULATIONS
--------------------------------------------
   0 Na:    0.626953   -0.000000
   1 H :   -0.626953    0.000000
Sum of atomic charges         :    0.0000000

LOEWDIN ATOMIC CHARGES AND SPIN POPULATIONS
-------------------------------------------
   0 Na:    0.692163   -0.000000
   1 H :   -0.692163    0.000000

  Mayer bond orders larger than 0.1
B(  0-Na,  1-H ) :   0.6219

FINAL SINGLE POINT ENERGY      -162.740480142715

DIPOLE MOMENT
-------------
                                X             Y             Z
Electronic contribution:      0.00000       0.00000      -4.03358
Nuclear contribution   :      0.00000       0.00000       1.76892
                        -----------------------------------------
Total Dipole Moment    :      0.00000       0.00000      -2.26467
                        -----------------------------------------
Magnitude (a.u.)       :      2.26467
Magnitude (Debye)      :      5.75632

Rotational constants in cm-1:     0.000000     4.900547     4.900547
Rotational constants in MHz :     0.000000 146914.698482 146914.698482

                             ****ORCA TERMINATED NORMALLY****
TOTAL RUN TIME: 0 days 0 hours 2 minutes 5 seconds 968 msec
