                         Program Version 4.1.2  - RELEASE  -
|  1> !uks pbe nori aug-pc-4 grid5 nofinalgrid verytightscf
|  2>
|  3> %maxcore 1500
|  4>
|  5> %pal nprocs 4 end
|  6>
|  7> %scf
|  8> 	maxiter 200
|  9> end
| 10> %elprop
| 11> 	dipole true
| 12> 	 polar 1
| 13> 	 maxiter 200
| 14> end
| 15>
| 16> * xyz 0 2
| 17> N 0.0000002327 -0.0000000061 -1.2737003115
| 18> C -0.0000004964 0.0000000123 -0.0271008600
| 19> O 0.0000002638 -0.0000000061 1.1312011715
| 20> *
| 21>
| 22>                          ****END OF INPUT****

CARTESIAN COORDINATES (ANGSTROEM)
---------------------------------
  N      0.000000   -0.000000   -1.273700
  C     -0.000000    0.000000   -0.027101
  O      0.000000   -0.000000    1.131201

 Total Charge           Charge          ....    0
 Multiplicity           Mult            ....    2
 Number of Electrons    NEL             ....   21
 Basis Dimension        Dim             ....  435

ORBITAL ENERGIES
----------------
                 SPIN UP ORBITALS
  NO   OCC          E(Eh)            E(eV)
   0   1.0000     -18.864506      -513.3293
   1   1.0000     -14.063361      -382.6835
   2   1.0000     -10.036600      -273.1098
   3   1.0000      -1.082216       -29.4486
   4   1.0000      -0.875877       -23.8338
   5   1.0000      -0.512363       -13.9421
   6   1.0000      -0.474737       -12.9182
   7   1.0000      -0.453130       -12.3303
   8   1.0000      -0.388581       -10.5738
   9   1.0000      -0.328400        -8.9362
  10   1.0000      -0.290445        -7.9034
  11   0.0000      -0.029984        -0.8159
  12   0.0000      -0.029316        -0.7977
  13   0.0000      -0.007060        -0.1921
  14   0.0000       0.014493         0.3944
  15   0.0000       0.015983         0.4349

                 SPIN DOWN ORBITALS
  NO   OCC          E(Eh)            E(eV)
   0   1.0000     -18.857312      -513.1335
   1   1.0000     -14.049892      -382.3170
   2   1.0000     -10.037360      -273.1305
   3   1.0000      -1.070804       -29.1381
   4   1.0000      -0.844626       -22.9834
   5   1.0000      -0.503282       -13.6950
   6   1.0000      -0.449294       -12.2259
   7   1.0000      -0.447150       -12.1676
   8   1.0000      -0.369947       -10.0668
   9   1.0000      -0.278111        -7.5678
  10   0.0000      -0.261498        -7.1157
  11   0.0000      -0.026022        -0.7081
  12   0.0000      -0.003176        -0.0864
  13   0.0000       0.002932         0.0798
  14   0.0000       0.016252         0.4422

MULLIKEN ATOMIC CHARGES AND SPIN POPULATIONS
--------------------------------------------
   0 N :   -0.063713    0.723229
   1 C :    0.101818   -0.058849
   2 O :   -0.038105    0.335620
Sum of atomic charges         :    0.0000000

LOEWDIN ATOMIC CHARGES AND SPIN POPULATIONS
-------------------------------------------
   0 N :    0.192144    0.529102
   1 C :   -0.482498    0.198008
   2 O :    0.290354    0.272890

  Mayer bond orders larger than 0.1
B(  0-N ,  1-C ) :   2.1328 B(  0-N ,  2-O ) :   0.2177 B(  1-C ,  2-O ) :   2.0222

FINAL SINGLE POINT ENERGY      -167.906359042919

DIPOLE MOMENT
-------------
                                X             Y             Z
Electronic contribution:     -0.00000       0.00000       0.32934
Nuclear contribution   :      0.00000      -0.00000       0.00975
                        -----------------------------------------
Total Dipole Moment    :     -0.00000       0.00000       0.33909
                        -----------------------------------------
Magnitude (a.u.)       :      0.33909
Magnitude (Debye)      :      0.86191

Rotational constants in cm-1:     0.000000     0.390178     0.390178
Rotational constants in MHz :     0.000000 11697.239848 11697.239848

                             ****ORCA TERMINATED NORMALLY****
TOTAL RUN TIME: 0 days 0 hours 53 minutes 31 seconds 663 msec
