                         Program Version 4.1.2  - RELEASE  -
|  1> !uks pbe nori aug-pc-4 grid5 nofinalgrid verytightscf
|  2>
|  3> %maxcore 1500
|  4>
|  5> %pal nprocs 4 end
|  6>
|  7> %scf
|  8> 	maxiter 200
|  9> end
| 10> %elprop
| 11> 	dipole true
| 12> 	 polar 1
| 13> 	 maxiter 200
| 14> end
| 15>
| 16> * xyz 0 2
| 17> N 0.0000 0.0000 0.0000
| 18> H 0.0000 0.8036 0.6347
| 19> H 0.0000 -0.8036 0.6347
| 20> *
| 21>
| 22>                          ****END OF INPUT****

CARTESIAN COORDINATES (ANGSTROEM)
---------------------------------
  N      0.000000    0.000000    0.000000
  H      0.000000    0.803600    0.634700
  H      0.000000   -0.803600    0.634700

 Total Charge           Charge          ....    0
 Multiplicity           Mult            ....    2
 Number of Electrons    NEL             ....    9
 Basis Dimension        Dim             ....  321

ORBITAL ENERGIES
----------------
                 SPIN UP ORBITALS
  NO   OCC          E(Eh)            E(eV)
   0   1.0000     -14.019349      -381.4859
   1   1.0000      -0.782602       -21.2957
   2   1.0000      -0.429675       -11.6920
   3   1.0000      -0.286211        -7.7882
   4   1.0000      -0.275494        -7.4966
   5   0.0000      -0.028314        -0.7705
   6   0.0000       0.012704         0.3457
   7   0.0000       0.024880         0.6770
   8   0.0000       0.027213         0.7405
   9   0.0000       0.041237         1.1221

                 SPIN DOWN ORBITALS
  NO   OCC          E(Eh)            E(eV)
   0   1.0000     -14.000861      -380.9828
   1   1.0000      -0.738371       -20.0921
   2   1.0000      -0.416523       -11.3342
   3   1.0000      -0.265303        -7.2193
   4   0.0000      -0.166704        -4.5362
   5   0.0000      -0.021871        -0.5952
   6   0.0000       0.014203         0.3865
   7   0.0000       0.028159         0.7662
   8   0.0000       0.035605         0.9689

MULLIKEN ATOMIC CHARGES AND SPIN POPULATIONS
--------------------------------------------
   0 N :   -0.370603    1.015613
   1 H :    0.185302   -0.007806
   2 H :    0.185301   -0.007807
Sum of atomic charges         :   -0.0000000

LOEWDIN ATOMIC CHARGES AND SPIN POPULATIONS
-------------------------------------------
   0 N :    1.159555    0.669596
   1 H :   -0.579778    0.165202
   2 H :   -0.579778    0.165202

  Mayer bond orders larger than 0.1
B(  0-N ,  1-H ) :   0.9614 B(  0-N ,  2-H ) :   0.9614

FINAL SINGLE POINT ENERGY       -55.836551685439

DIPOLE MOMENT
-------------
                                X             Y             Z
Electronic contribution:     -0.00000      -0.00000      -0.36364
Nuclear contribution   :      0.00000       0.00000       1.04064
                        -----------------------------------------
Total Dipole Moment    :     -0.00000      -0.00000       0.67700
                        -----------------------------------------
Magnitude (a.u.)       :      0.67700
Magnitude (Debye)      :      1.72079

Rotational constants in cm-1:    23.744776    12.948710     8.379259
Rotational constants in MHz : 711850.482242 388192.571145 251203.867087

                             ****ORCA TERMINATED NORMALLY****
TOTAL RUN TIME: 0 days 0 hours 7 minutes 56 seconds 350 msec
