                         Program Version 4.1.2  - RELEASE  -
|  1> !uks pbe nori aug-pc-4 grid5 nofinalgrid verytightscf
|  2>
|  3> %maxcore 1500
|  4>
|  5> %pal nprocs 4 end
|  6>
|  7> %scf
|  8> 	maxiter 200
|  9> end
| 10> %elprop
| 11> 	dipole true
| 12> 	 polar 1
| 13> 	 maxiter 200
| 14> end
| 15>
| 16> * xyz 0 1
| 17> Cl 0.0000000000 0.0000000000 0.0000000000
| 18> N 0.0000000000 0.0000000000 1.7475500000
| 19> H 0.9877064288 0.0000000000 1.9857191054
| 20> H -0.3322887804 -0.9301334032 1.9857191227
| 21> *
| 22>
| 23>                          ****END OF INPUT****

CARTESIAN COORDINATES (ANGSTROEM)
---------------------------------
  Cl     0.000000    0.000000    0.000000
  N      0.000000    0.000000    1.747550
  H      0.987706    0.000000    1.985719
  H     -0.332289   -0.930133    1.985719

 Total Charge           Charge          ....    0
 Multiplicity           Mult            ....    1
 Number of Electrons    NEL             ....   26
 Basis Dimension        Dim             ....  462

ORBITAL ENERGIES
----------------
                 SPIN UP ORBITALS
  NO   OCC          E(Eh)            E(eV)
   0   1.0000    -100.667212     -2739.2941
   1   1.0000     -14.038661      -382.0114
   2   1.0000      -9.188921      -250.0433
   3   1.0000      -7.014430      -190.8723
   4   1.0000      -7.000549      -190.4946
   5   1.0000      -7.000060      -190.4813
   6   1.0000      -0.868539       -23.6342
   7   1.0000      -0.693390       -18.8681
   8   1.0000      -0.470305       -12.7977
   9   1.0000      -0.423778       -11.5316
  10   1.0000      -0.333237        -9.0678
  11   1.0000      -0.275360        -7.4929
  12   1.0000      -0.226524        -6.1640
  13   0.0000      -0.075870        -2.0645
  14   0.0000      -0.023053        -0.6273
  15   0.0000       0.007666         0.2086
  16   0.0000       0.016782         0.4567
  17   0.0000       0.020798         0.5659

                 SPIN DOWN ORBITALS
  NO   OCC          E(Eh)            E(eV)
   0   1.0000    -100.667212     -2739.2941
   1   1.0000     -14.038661      -382.0114
   2   1.0000      -9.188921      -250.0433
   3   1.0000      -7.014430      -190.8723
   4   1.0000      -7.000549      -190.4946
   5   1.0000      -7.000060      -190.4813
   6   1.0000      -0.868539       -23.6342
   7   1.0000      -0.693390       -18.8681
   8   1.0000      -0.470305       -12.7977
   9   1.0000      -0.423778       -11.5316
  10   1.0000      -0.333237        -9.0678
  11   1.0000      -0.275360        -7.4929
  12   1.0000      -0.226524        -6.1640
  13   0.0000      -0.075870        -2.0645
  14   0.0000      -0.023053        -0.6273
  15   0.0000       0.007666         0.2086
  16   0.0000       0.016782         0.4567
  17   0.0000       0.020798         0.5659

MULLIKEN ATOMIC CHARGES AND SPIN POPULATIONS
--------------------------------------------
   0 Cl:   -0.122359   -0.000000
   1 N :   -0.186223    0.000000
   2 H :    0.154792   -0.000000
   3 H :    0.153789   -0.000000
Sum of atomic charges         :    0.0000000

LOEWDIN ATOMIC CHARGES AND SPIN POPULATIONS
-------------------------------------------
   0 Cl:    1.523046   -0.000000
   1 N :    0.285030    0.000000
   2 H :   -0.904037   -0.000000
   3 H :   -0.904039   -0.000000

  Mayer bond orders larger than 0.1
B(  0-Cl,  1-N ) :   1.0698 B(  0-Cl,  2-H ) :   0.1050 B(  0-Cl,  3-H ) :   0.1049
B(  1-N ,  2-H ) :   0.9427 B(  1-N ,  3-H ) :   0.9434

FINAL SINGLE POINT ENERGY      -515.922493484272

DIPOLE MOMENT
-------------
                                X             Y             Z
Electronic contribution:     -0.26292       0.37312      -2.97796
Nuclear contribution   :      0.60797      -0.86280       3.43695
                        -----------------------------------------
Total Dipole Moment    :      0.34505      -0.48968       0.45899
                        -----------------------------------------
Magnitude (a.u.)       :      0.75466
Magnitude (Debye)      :      1.91819

Rotational constants in cm-1:     9.049835     0.473605     0.463632
Rotational constants in MHz : 271307.221348 14198.317814 13899.341134

                             ****ORCA TERMINATED NORMALLY****
TOTAL RUN TIME: 0 days 1 hours 1 minutes 28 seconds 692 msec
