                         Program Version 4.1.2  - RELEASE  -
|  1> !uks pbe nori aug-pc-4 grid5 nofinalgrid verytightscf
|  2>
|  3> %maxcore 1500
|  4>
|  5> %pal nprocs 4 end
|  6>
|  7> %scf
|  8> 	maxiter 200
|  9> end
| 10> %elprop
| 11> 	dipole true
| 12> 	 polar 1
| 13> 	 maxiter 200
| 14> end
| 15>
| 16> * xyz 0 1
| 17> N 0.0000000000 0.0000000000 -0.5344777797
| 18> H -0.9458001927 0.0000000000 -0.9350779673
| 19> H 0.4729000069 -0.8190998435 -0.9350776619
| 20> H 0.4729000069 0.8190998435 -0.9350776619
| 21> O 0.0000000000 0.0000000000 0.8183222203
| 22> *
| 23>
| 24>                          ****END OF INPUT****

CARTESIAN COORDINATES (ANGSTROEM)
---------------------------------
  N      0.000000    0.000000   -0.534478
  H     -0.945800    0.000000   -0.935078
  H      0.472900   -0.819100   -0.935078
  H      0.472900    0.819100   -0.935078
  O      0.000000    0.000000    0.818322

 Total Charge           Charge          ....    0
 Multiplicity           Mult            ....    1
 Number of Electrons    NEL             ....   18
 Basis Dimension        Dim             ....  554

ORBITAL ENERGIES
----------------
                 SPIN UP ORBITALS
  NO   OCC          E(Eh)            E(eV)
   0   1.0000     -18.679312      -508.2899
   1   1.0000     -14.126489      -384.4013
   2   1.0000      -0.972202       -26.4550
   3   1.0000      -0.738558       -20.0972
   4   1.0000      -0.519754       -14.1432
   5   1.0000      -0.519753       -14.1432
   6   1.0000      -0.383516       -10.4360
   7   1.0000      -0.171571        -4.6687
   8   1.0000      -0.171571        -4.6687
   9   0.0000      -0.055648        -1.5143
  10   0.0000      -0.002917        -0.0794
  11   0.0000      -0.002916        -0.0794
  12   0.0000       0.008048         0.2190
  13   0.0000       0.024444         0.6652

                 SPIN DOWN ORBITALS
  NO   OCC          E(Eh)            E(eV)
   0   1.0000     -18.679312      -508.2899
   1   1.0000     -14.126489      -384.4013
   2   1.0000      -0.972202       -26.4550
   3   1.0000      -0.738558       -20.0972
   4   1.0000      -0.519754       -14.1432
   5   1.0000      -0.519753       -14.1432
   6   1.0000      -0.383516       -10.4360
   7   1.0000      -0.171571        -4.6687
   8   1.0000      -0.171571        -4.6687
   9   0.0000      -0.055648        -1.5143
  10   0.0000      -0.002917        -0.0794
  11   0.0000      -0.002916        -0.0794
  12   0.0000       0.008048         0.2190
  13   0.0000       0.024444         0.6652

MULLIKEN ATOMIC CHARGES AND SPIN POPULATIONS
--------------------------------------------
   0 N :    0.126563    0.000000
   1 H :    0.157946   -0.000000
   2 H :    0.159524   -0.000000
   3 H :    0.159504   -0.000000
   4 O :   -0.603536   -0.000000
Sum of atomic charges         :   -0.0000000

LOEWDIN ATOMIC CHARGES AND SPIN POPULATIONS
-------------------------------------------
   0 N :    0.881039    0.000000
   1 H :   -0.445829    0.000000
   2 H :   -0.445813    0.000000
   3 H :   -0.445813   -0.000000
   4 O :    0.456417   -0.000000

  Mayer bond orders larger than 0.1
B(  0-N ,  1-H ) :   0.9417 B(  0-N ,  2-H ) :   0.9409 B(  0-N ,  3-H ) :   0.9409
B(  0-N ,  4-O ) :   1.2012

FINAL SINGLE POINT ENERGY      -131.611611792784

DIPOLE MOMENT
-------------
                                X             Y             Z
Electronic contribution:     -0.00000      -0.00000       0.87519
Nuclear contribution   :     -0.00000       0.00000      -2.86109
                        -----------------------------------------
Total Dipole Moment    :     -0.00000      -0.00000      -1.98590
                        -----------------------------------------
Magnitude (a.u.)       :      1.98590
Magnitude (Debye)      :      5.04775

Rotational constants in cm-1:     6.231743     0.912307     0.912305
Rotational constants in MHz : 186822.954115 27350.282852 27350.219786

                             ****ORCA TERMINATED NORMALLY****
TOTAL RUN TIME: 0 days 1 hours 18 minutes 53 seconds 284 msec
