                         Program Version 4.1.2  - RELEASE  -
|  1> !uks pbe nori aug-pc-4 grid5 nofinalgrid verytightscf
|  2>
|  3> %maxcore 1500
|  4>
|  5> %pal nprocs 4 end
|  6>
|  7> %scf
|  8> 	maxiter 200
|  9> end
| 10> %elprop
| 11> 	dipole true
| 12> 	 polar 1
| 13> 	 maxiter 200
| 14> end
| 15>
| 16> * xyz 0 3
| 17> N 0 0 0
| 18> H 0 0 1.0362
| 19> *
| 20>
| 21>                          ****END OF INPUT****

CARTESIAN COORDINATES (ANGSTROEM)
---------------------------------
  N      0.000000    0.000000    0.000000
  H      0.000000    0.000000    1.036200

 Total Charge           Charge          ....    0
 Multiplicity           Mult            ....    3
 Number of Electrons    NEL             ....    8
 Basis Dimension        Dim             ....  233

ORBITAL ENERGIES
----------------
                 SPIN UP ORBITALS
  NO   OCC          E(Eh)            E(eV)
   0   1.0000     -14.067699      -382.8016
   1   1.0000      -0.768649       -20.9160
   2   1.0000      -0.357885        -9.7385
   3   1.0000      -0.291148        -7.9225
   4   1.0000      -0.291148        -7.9225
   5   0.0000      -0.024496        -0.6666
   6   0.0000       0.025605         0.6967
   7   0.0000       0.025605         0.6967
   8   0.0000       0.025696         0.6992
   9   0.0000       0.044023         1.1979

                 SPIN DOWN ORBITALS
  NO   OCC          E(Eh)            E(eV)
   0   1.0000     -14.030425      -381.7873
   1   1.0000      -0.674690       -18.3592
   2   1.0000      -0.318219        -8.6592
   3   0.0000      -0.158762        -4.3201
   4   0.0000      -0.158762        -4.3201
   5   0.0000      -0.011238        -0.3058
   6   0.0000       0.029148         0.7932
   7   0.0000       0.039360         1.0710

MULLIKEN ATOMIC CHARGES AND SPIN POPULATIONS
--------------------------------------------
   0 N :   -0.164810    2.004092
   1 H :    0.164810   -0.004092
Sum of atomic charges         :    0.0000000

LOEWDIN ATOMIC CHARGES AND SPIN POPULATIONS
-------------------------------------------
   0 N :    0.759952    1.597846
   1 H :   -0.759952    0.402154

  Mayer bond orders larger than 0.1
B(  0-N ,  1-H ) :   0.9757

FINAL SINGLE POINT ENERGY       -55.176846373543

DIPOLE MOMENT
-------------
                                X             Y             Z
Electronic contribution:      0.00000       0.00000      -0.32349
Nuclear contribution   :      0.00000       0.00000       0.90649
                        -----------------------------------------
Total Dipole Moment    :      0.00000       0.00000       0.58300
                        -----------------------------------------
Magnitude (a.u.)       :      0.58300
Magnitude (Debye)      :      1.48186

Rotational constants in cm-1:     0.000000    16.696652    16.696652
Rotational constants in MHz :     0.000000 500553.040588 500553.040588

                             ****ORCA TERMINATED NORMALLY****
TOTAL RUN TIME: 0 days 0 hours 3 minutes 3 seconds 446 msec
