                         Program Version 4.1.2  - RELEASE  -
|  1> !uks pbe nori aug-pc-4 grid5 nofinalgrid verytightscf
|  2>
|  3> %maxcore 1500
|  4>
|  5> %pal nprocs 4 end
|  6>
|  7> %scf
|  8> 	maxiter 200
|  9> end
| 10> %elprop
| 11> 	dipole true
| 12> 	 polar 1
| 13> 	 maxiter 200
| 14> end
| 15>
| 16> * xyz 0 1
| 17> Cl -0.5312 -0.9298 0.0000
| 18> N 0.0000 0.9724 0.0000
| 19> O 1.1287 1.1250 0.0000
| 20> *
| 21>
| 22>                          ****END OF INPUT****

CARTESIAN COORDINATES (ANGSTROEM)
---------------------------------
  Cl    -0.531200   -0.929800    0.000000
  N      0.000000    0.972400    0.000000
  O      1.128700    1.125000    0.000000

 Total Charge           Charge          ....    0
 Multiplicity           Mult            ....    1
 Number of Electrons    NEL             ....   32
 Basis Dimension        Dim             ....  431

ORBITAL ENERGIES
----------------
                 SPIN UP ORBITALS
  NO   OCC          E(Eh)            E(eV)
   0   1.0000    -100.651265     -2738.8602
   1   1.0000     -18.917685      -514.7764
   2   1.0000     -14.200110      -386.4046
   3   1.0000      -9.174519      -249.6514
   4   1.0000      -6.995598      -190.3599
   5   1.0000      -6.989446      -190.1925
   6   1.0000      -6.986684      -190.1173
   7   1.0000      -1.207328       -32.8531
   8   1.0000      -0.757895       -20.6234
   9   1.0000      -0.639853       -17.4113
  10   1.0000      -0.516842       -14.0640
  11   1.0000      -0.514081       -13.9889
  12   1.0000      -0.482910       -13.1406
  13   1.0000      -0.291239        -7.9250
  14   1.0000      -0.280635        -7.6365
  15   1.0000      -0.273034        -7.4296
  16   0.0000      -0.183177        -4.9845
  17   0.0000      -0.120563        -3.2807
  18   0.0000      -0.007911        -0.2153
  19   0.0000       0.012993         0.3536
  20   0.0000       0.018933         0.5152

                 SPIN DOWN ORBITALS
  NO   OCC          E(Eh)            E(eV)
   0   1.0000    -100.651265     -2738.8602
   1   1.0000     -18.917685      -514.7764
   2   1.0000     -14.200110      -386.4046
   3   1.0000      -9.174519      -249.6514
   4   1.0000      -6.995598      -190.3599
   5   1.0000      -6.989446      -190.1925
   6   1.0000      -6.986684      -190.1173
   7   1.0000      -1.207328       -32.8531
   8   1.0000      -0.757895       -20.6234
   9   1.0000      -0.639853       -17.4113
  10   1.0000      -0.516842       -14.0640
  11   1.0000      -0.514081       -13.9889
  12   1.0000      -0.482910       -13.1406
  13   1.0000      -0.291239        -7.9250
  14   1.0000      -0.280635        -7.6365
  15   1.0000      -0.273034        -7.4296
  16   0.0000      -0.183177        -4.9845
  17   0.0000      -0.120563        -3.2807
  18   0.0000      -0.007911        -0.2153
  19   0.0000       0.012993         0.3536
  20   0.0000       0.018933         0.5152

MULLIKEN ATOMIC CHARGES AND SPIN POPULATIONS
--------------------------------------------
   0 Cl:   -0.272030    0.000000
   1 N :    0.285317   -0.000000
   2 O :   -0.013288    0.000000
Sum of atomic charges         :    0.0000000

LOEWDIN ATOMIC CHARGES AND SPIN POPULATIONS
-------------------------------------------
   0 Cl:    0.968840   -0.000000
   1 N :   -0.833164    0.000000
   2 O :   -0.135676    0.000000

  Mayer bond orders larger than 0.1
B(  0-Cl,  1-N ) :   0.9732 B(  0-Cl,  2-O ) :   0.3324 B(  1-N ,  2-O ) :   2.0571

FINAL SINGLE POINT ENERGY      -589.883872834540

DIPOLE MOMENT
-------------
                                X             Y             Z
Electronic contribution:     -0.37378      -0.64932       0.00000
Nuclear contribution   :      0.71403       1.24282       0.00000
                        -----------------------------------------
Total Dipole Moment    :      0.34025       0.59350       0.00000
                        -----------------------------------------
Magnitude (a.u.)       :      0.68412
Magnitude (Debye)      :      1.73889

Rotational constants in cm-1:     2.884749     0.190162     0.178402
Rotational constants in MHz : 86482.593014  5700.913502  5348.351357

                             ****ORCA TERMINATED NORMALLY****
TOTAL RUN TIME: 0 days 0 hours 56 minutes 19 seconds 653 msec
