                         Program Version 4.1.2  - RELEASE  -
|  1> !uks pbe nori aug-pc-4 grid5 nofinalgrid verytightscf
|  2>
|  3> %maxcore 1500
|  4>
|  5> %pal nprocs 4 end
|  6>
|  7> %scf
|  8> 	maxiter 200
|  9> end
| 10> %elprop
| 11> 	dipole true
| 12> 	 polar 1
| 13> 	 maxiter 200
| 14> end
| 15>
| 16> * xyz 0 1
| 17> N 0.0000 0.0000 1.4909
| 18> P 0.0000 0.0000 0.0000
| 19> *
| 20>
| 21>                          ****END OF INPUT****

CARTESIAN COORDINATES (ANGSTROEM)
---------------------------------
  N      0.000000    0.000000    1.490900
  P      0.000000    0.000000    0.000000

 Total Charge           Charge          ....    0
 Multiplicity           Mult            ....    1
 Number of Electrons    NEL             ....   22
 Basis Dimension        Dim             ....  286

ORBITAL ENERGIES
----------------
                 SPIN UP ORBITALS
  NO   OCC          E(Eh)            E(eV)
   0   1.0000     -76.325598     -2076.9251
   1   1.0000     -14.018850      -381.4723
   2   1.0000      -6.347878      -172.7345
   3   1.0000      -4.564181      -124.1977
   4   1.0000      -4.564181      -124.1977
   5   1.0000      -4.558054      -124.0309
   6   1.0000      -0.778333       -21.1795
   7   1.0000      -0.451002       -12.2724
   8   1.0000      -0.306565        -8.3421
   9   1.0000      -0.306565        -8.3421
  10   1.0000      -0.284881        -7.7520
  11   0.0000      -0.125076        -3.4035
  12   0.0000      -0.125076        -3.4035
  13   0.0000      -0.012516        -0.3406
  14   0.0000      -0.006396        -0.1740
  15   0.0000       0.016771         0.4563

                 SPIN DOWN ORBITALS
  NO   OCC          E(Eh)            E(eV)
   0   1.0000     -76.325598     -2076.9251
   1   1.0000     -14.018850      -381.4723
   2   1.0000      -6.347878      -172.7345
   3   1.0000      -4.564181      -124.1977
   4   1.0000      -4.564181      -124.1977
   5   1.0000      -4.558054      -124.0309
   6   1.0000      -0.778333       -21.1795
   7   1.0000      -0.451002       -12.2724
   8   1.0000      -0.306565        -8.3421
   9   1.0000      -0.306565        -8.3421
  10   1.0000      -0.284881        -7.7520
  11   0.0000      -0.125076        -3.4035
  12   0.0000      -0.125076        -3.4035
  13   0.0000      -0.012516        -0.3406
  14   0.0000      -0.006396        -0.1740
  15   0.0000       0.016771         0.4563

MULLIKEN ATOMIC CHARGES AND SPIN POPULATIONS
--------------------------------------------
   0 N :   -0.208543   -0.000000
   1 P :    0.208543    0.000000
Sum of atomic charges         :   -0.0000000

LOEWDIN ATOMIC CHARGES AND SPIN POPULATIONS
-------------------------------------------
   0 N :   -0.816006   -0.000000
   1 P :    0.816006    0.000000

  Mayer bond orders larger than 0.1
B(  0-N ,  1-P ) :   2.9038

FINAL SINGLE POINT ENERGY      -395.900919125422

DIPOLE MOMENT
-------------
                                X             Y             Z
Electronic contribution:     -0.00000      -0.00000      -1.49114
Nuclear contribution   :      0.00000       0.00000       0.42047
                        -----------------------------------------
Total Dipole Moment    :     -0.00000      -0.00000      -1.07067
                        -----------------------------------------
Magnitude (a.u.)       :      1.07067
Magnitude (Debye)      :      2.72143

Rotational constants in cm-1:     0.000000     0.786297     0.786297
Rotational constants in MHz :     0.000000 23572.587586 23572.587586

                             ****ORCA TERMINATED NORMALLY****
TOTAL RUN TIME: 0 days 0 hours 12 minutes 19 seconds 669 msec
