                         Program Version 4.1.2  - RELEASE  -
|  1> !uks pbe nori aug-pc-4 grid5 nofinalgrid verytightscf
|  2>
|  3> %maxcore 1500
|  4>
|  5> %pal nprocs 4 end
|  6>
|  7> %scf
|  8> 	maxiter 200
|  9> end
| 10> %elprop
| 11> 	dipole true
| 12> 	 polar 1
| 13> 	 maxiter 200
| 14> end
| 15>
| 16> * xyz 0 3
| 17> O 0.0000 0.0000 0.0000
| 18> O 0.0000 0.0000 1.2075
| 19> *
| 20>
| 21>                          ****END OF INPUT****

CARTESIAN COORDINATES (ANGSTROEM)
---------------------------------
  O      0.000000    0.000000    0.000000
  O      0.000000    0.000000    1.207500

 Total Charge           Charge          ....    0
 Multiplicity           Mult            ....    3
 Number of Electrons    NEL             ....   16
 Basis Dimension        Dim             ....  290

ORBITAL ENERGIES
----------------
                 SPIN UP ORBITALS
  NO   OCC          E(Eh)            E(eV)
   0   1.0000     -18.904765      -514.4248
   1   1.0000     -18.904686      -514.4227
   2   1.0000      -1.209639       -32.9160
   3   1.0000      -0.753374       -20.5003
   4   1.0000      -0.498743       -13.5715
   5   1.0000      -0.498250       -13.5581
   6   1.0000      -0.498250       -13.5581
   7   1.0000      -0.250632        -6.8200
   8   1.0000      -0.250632        -6.8200
   9   0.0000       0.010407         0.2832
  10   0.0000       0.017474         0.4755
  11   0.0000       0.028978         0.7885
  12   0.0000       0.028978         0.7885
  13   0.0000       0.059700         1.6245

                 SPIN DOWN ORBITALS
  NO   OCC          E(Eh)            E(eV)
   0   1.0000     -18.878622      -513.7134
   1   1.0000     -18.878543      -513.7113
   2   1.0000      -1.165983       -31.7280
   3   1.0000      -0.687445       -18.7063
   4   1.0000      -0.465274       -12.6608
   5   1.0000      -0.429781       -11.6949
   6   1.0000      -0.429781       -11.6949
   7   0.0000      -0.165542        -4.5046
   8   0.0000      -0.165542        -4.5046
   9   0.0000       0.018959         0.5159
  10   0.0000       0.024208         0.6587
  11   0.0000       0.033538         0.9126

MULLIKEN ATOMIC CHARGES AND SPIN POPULATIONS
--------------------------------------------
   0 O :    0.000001    1.000002
   1 O :   -0.000001    0.999998
Sum of atomic charges         :   -0.0000000

LOEWDIN ATOMIC CHARGES AND SPIN POPULATIONS
-------------------------------------------
   0 O :    0.000000    1.000000
   1 O :   -0.000000    1.000000

  Mayer bond orders larger than 0.1
B(  0-O ,  1-O ) :   1.7969

FINAL SINGLE POINT ENERGY      -150.259446019712

DIPOLE MOMENT
-------------
                                X             Y             Z
Electronic contribution:     -0.00000      -0.00000      -0.00000
Nuclear contribution   :      0.00000       0.00000       0.00000
                        -----------------------------------------
Total Dipole Moment    :     -0.00000      -0.00000      -0.00000
                        -----------------------------------------
Magnitude (a.u.)       :      0.00000
Magnitude (Debye)      :      0.00000

Rotational constants in cm-1:     0.000000     1.445306     1.445306
Rotational constants in MHz :     0.000000 43329.181220 43329.181220

                             ****ORCA TERMINATED NORMALLY****
TOTAL RUN TIME: 0 days 0 hours 6 minutes 48 seconds 264 msec
