                         Program Version 4.1.2  - RELEASE  -
|  1> !uks pbe nori aug-pc-4 grid5 nofinalgrid verytightscf
|  2>
|  3> %maxcore 1500
|  4>
|  5> %pal nprocs 4 end
|  6>
|  7> %scf
|  8> 	maxiter 200
|  9> end
| 10> %elprop
| 11> 	dipole true
| 12> 	 polar 1
| 13> 	 maxiter 200
| 14> end
| 15>
| 16> * xyz 0 1
| 17> O 0.0000 0.0000 0.0000
| 18> O 0.0000 1.0885 0.6697
| 19> O 0.0000 -1.0885 0.6697
| 20> *
| 21>
| 22>                          ****END OF INPUT****

CARTESIAN COORDINATES (ANGSTROEM)
---------------------------------
  O      0.000000    0.000000    0.000000
  O      0.000000    1.088500    0.669700
  O      0.000000   -1.088500    0.669700

 Total Charge           Charge          ....    0
 Multiplicity           Mult            ....    1
 Number of Electrons    NEL             ....   24
 Basis Dimension        Dim             ....  435

ORBITAL ENERGIES
----------------
                 SPIN UP ORBITALS
  NO   OCC          E(Eh)            E(eV)
   0   1.0000     -19.042119      -518.1624
   1   1.0000     -18.868539      -513.4390
   2   1.0000     -18.868539      -513.4390
   3   1.0000      -1.260293       -34.2943
   4   1.0000      -1.008288       -27.4369
   5   1.0000      -0.715596       -19.4724
   6   1.0000      -0.546846       -14.8804
   7   1.0000      -0.542008       -14.7488
   8   1.0000      -0.531378       -14.4595
   9   1.0000      -0.336534        -9.1575
  10   1.0000      -0.297154        -8.0860
  11   1.0000      -0.294092        -8.0027
  12   0.0000      -0.228330        -6.2132
  13   0.0000      -0.004196        -0.1142
  14   0.0000       0.002770         0.0754
  15   0.0000       0.016669         0.4536
  16   0.0000       0.025156         0.6845

                 SPIN DOWN ORBITALS
  NO   OCC          E(Eh)            E(eV)
   0   1.0000     -19.042119      -518.1624
   1   1.0000     -18.868539      -513.4390
   2   1.0000     -18.868539      -513.4390
   3   1.0000      -1.260293       -34.2943
   4   1.0000      -1.008288       -27.4369
   5   1.0000      -0.715596       -19.4724
   6   1.0000      -0.546846       -14.8804
   7   1.0000      -0.542008       -14.7488
   8   1.0000      -0.531378       -14.4595
   9   1.0000      -0.336534        -9.1575
  10   1.0000      -0.297154        -8.0860
  11   1.0000      -0.294092        -8.0027
  12   0.0000      -0.228330        -6.2132
  13   0.0000      -0.004196        -0.1142
  14   0.0000       0.002770         0.0754
  15   0.0000       0.016669         0.4536
  16   0.0000       0.025156         0.6845

MULLIKEN ATOMIC CHARGES AND SPIN POPULATIONS
--------------------------------------------
   0 O :    0.337411    0.000000
   1 O :   -0.168705   -0.000000
   2 O :   -0.168706    0.000000
Sum of atomic charges         :    0.0000000

LOEWDIN ATOMIC CHARGES AND SPIN POPULATIONS
-------------------------------------------
   0 O :   -0.178168    0.000000
   1 O :    0.089084   -0.000000
   2 O :    0.089084    0.000000

  Mayer bond orders larger than 0.1
B(  0-O ,  1-O ) :   1.4104 B(  0-O ,  2-O ) :   1.4104 B(  1-O ,  2-O ) :   0.5883

FINAL SINGLE POINT ENERGY      -225.340608363427

DIPOLE MOMENT
-------------
                                X             Y             Z
Electronic contribution:      0.00000       0.00000      -0.25084
Nuclear contribution   :      0.00000       0.00000      -0.00000
                        -----------------------------------------
Total Dipole Moment    :      0.00000       0.00000      -0.25084
                        -----------------------------------------
Magnitude (a.u.)       :      0.25084
Magnitude (Debye)      :      0.63760

Rotational constants in cm-1:     3.523990     0.444649     0.394830
Rotational constants in MHz : 105646.576140 13330.237990 11836.709641

                             ****ORCA TERMINATED NORMALLY****
TOTAL RUN TIME: 0 days 0 hours 53 minutes 37 seconds 492 msec
