                         Program Version 4.1.2  - RELEASE  -
|  1> !uks pbe nori aug-pc-4 grid5 nofinalgrid verytightscf
|  2>
|  3> %maxcore 1500
|  4>
|  5> %pal nprocs 4 end
|  6>
|  7> %scf
|  8> 	maxiter 200
|  9> end
| 10> %elprop
| 11> 	dipole true
| 12> 	 polar 1
| 13> 	 maxiter 200
| 14> end
| 15>
| 16> * xyz 0 1
| 17> O 0.0000 0.0000 0.7788
| 18> Cl 0.0000 1.3966 -0.1832
| 19> Cl 0.0000 -1.3966 -0.1832
| 20> *
| 21>
| 22>                          ****END OF INPUT****

CARTESIAN COORDINATES (ANGSTROEM)
---------------------------------
  O      0.000000    0.000000    0.778800
  Cl     0.000000    1.396600   -0.183200
  Cl     0.000000   -1.396600   -0.183200

 Total Charge           Charge          ....    0
 Multiplicity           Mult            ....    1
 Number of Electrons    NEL             ....   42
 Basis Dimension        Dim             ....  427

ORBITAL ENERGIES
----------------
                 SPIN UP ORBITALS
  NO   OCC          E(Eh)            E(eV)
   0   1.0000    -100.713307     -2740.5484
   1   1.0000    -100.713307     -2740.5484
   2   1.0000     -18.886434      -513.9260
   3   1.0000      -9.233341      -251.2520
   4   1.0000      -9.233341      -251.2520
   5   1.0000      -7.061168      -192.1442
   6   1.0000      -7.061168      -192.1441
   7   1.0000      -7.044321      -191.6857
   8   1.0000      -7.044321      -191.6857
   9   1.0000      -7.043400      -191.6607
  10   1.0000      -7.043400      -191.6607
  11   1.0000      -1.029155       -28.0047
  12   1.0000      -0.800725       -21.7888
  13   1.0000      -0.701190       -19.0803
  14   1.0000      -0.496220       -13.5028
  15   1.0000      -0.447190       -12.1687
  16   1.0000      -0.414693       -11.2844
  17   1.0000      -0.311197        -8.4681
  18   1.0000      -0.310956        -8.4616
  19   1.0000      -0.296984        -8.0813
  20   1.0000      -0.247722        -6.7408
  21   0.0000      -0.169431        -4.6105
  22   0.0000      -0.105411        -2.8684
  23   0.0000      -0.008417        -0.2290
  24   0.0000       0.011458         0.3118
  25   0.0000       0.019024         0.5177

                 SPIN DOWN ORBITALS
  NO   OCC          E(Eh)            E(eV)
   0   1.0000    -100.713307     -2740.5484
   1   1.0000    -100.713307     -2740.5484
   2   1.0000     -18.886434      -513.9260
   3   1.0000      -9.233341      -251.2520
   4   1.0000      -9.233341      -251.2520
   5   1.0000      -7.061168      -192.1442
   6   1.0000      -7.061168      -192.1441
   7   1.0000      -7.044321      -191.6857
   8   1.0000      -7.044321      -191.6857
   9   1.0000      -7.043400      -191.6607
  10   1.0000      -7.043400      -191.6607
  11   1.0000      -1.029155       -28.0047
  12   1.0000      -0.800725       -21.7888
  13   1.0000      -0.701190       -19.0803
  14   1.0000      -0.496220       -13.5028
  15   1.0000      -0.447190       -12.1687
  16   1.0000      -0.414693       -11.2844
  17   1.0000      -0.311197        -8.4681
  18   1.0000      -0.310956        -8.4616
  19   1.0000      -0.296984        -8.0813
  20   1.0000      -0.247722        -6.7408
  21   0.0000      -0.169431        -4.6105
  22   0.0000      -0.105411        -2.8684
  23   0.0000      -0.008417        -0.2290
  24   0.0000       0.011458         0.3118
  25   0.0000       0.019024         0.5177

MULLIKEN ATOMIC CHARGES AND SPIN POPULATIONS
--------------------------------------------
   0 O :    0.196145   -0.000000
   1 Cl:   -0.098073    0.000000
   2 Cl:   -0.098072   -0.000000
Sum of atomic charges         :    0.0000000

LOEWDIN ATOMIC CHARGES AND SPIN POPULATIONS
-------------------------------------------
   0 O :   -1.632266   -0.000000
   1 Cl:    0.816133   -0.000000
   2 Cl:    0.816133    0.000000

  Mayer bond orders larger than 0.1
B(  0-O ,  1-Cl) :   1.0859 B(  0-O ,  2-Cl) :   1.0859 B(  1-Cl,  2-Cl) :   0.2157

FINAL SINGLE POINT ENERGY      -995.155006453061

DIPOLE MOMENT
-------------
                                X             Y             Z
Electronic contribution:     -0.00000       0.00000      -0.67015
Nuclear contribution   :      0.00000       0.00000       0.48702
                        -----------------------------------------
Total Dipole Moment    :     -0.00000       0.00000      -0.18312
                        -----------------------------------------
Magnitude (a.u.)       :      0.18312
Magnitude (Debye)      :      0.46547

Rotational constants in cm-1:     1.395455     0.121890     0.112099
Rotational constants in MHz : 41834.674961  3654.185098  3360.639190

                             ****ORCA TERMINATED NORMALLY****
TOTAL RUN TIME: 0 days 0 hours 54 minutes 9 seconds 987 msec
