                         Program Version 4.1.2  - RELEASE  -
|  1> !uks pbe nori aug-pc-4 grid5 nofinalgrid verytightscf
|  2>
|  3> %maxcore 1500
|  4>
|  5> %pal nprocs 4 end
|  6>
|  7> %scf
|  8> 	maxiter 200
|  9> end
| 10> %elprop
| 11> 	dipole true
| 12> 	 polar 1
| 13> 	 maxiter 200
| 14> end
| 15>
| 16> * xyz 0 1
| 17> O 0.0000 0.0000 0.6049
| 18> F 0.0000 1.1003 -0.2688
| 19> F 0.0000 -1.1003 -0.2688
| 20> *
| 21>
| 22>                          ****END OF INPUT****

CARTESIAN COORDINATES (ANGSTROEM)
---------------------------------
  O      0.000000    0.000000    0.604900
  F      0.000000    1.100300   -0.268800
  F      0.000000   -1.100300   -0.268800

 Total Charge           Charge          ....    0
 Multiplicity           Mult            ....    1
 Number of Electrons    NEL             ....   26
 Basis Dimension        Dim             ....  435

ORBITAL ENERGIES
----------------
                 SPIN UP ORBITALS
  NO   OCC          E(Eh)            E(eV)
   0   1.0000     -24.340942      -662.3507
   1   1.0000     -24.340942      -662.3507
   2   1.0000     -18.967506      -516.1321
   3   1.0000      -1.244326       -33.8598
   4   1.0000      -1.136934       -30.9376
   5   1.0000      -0.867607       -23.6088
   6   1.0000      -0.579625       -15.7724
   7   1.0000      -0.525073       -14.2880
   8   1.0000      -0.484193       -13.1756
   9   1.0000      -0.401735       -10.9318
  10   1.0000      -0.399705       -10.8765
  11   1.0000      -0.388135       -10.5617
  12   1.0000      -0.281026        -7.6471
  13   0.0000      -0.151811        -4.1310
  14   0.0000      -0.123694        -3.3659
  15   0.0000      -0.000359        -0.0098
  16   0.0000       0.025800         0.7021
  17   0.0000       0.028954         0.7879

                 SPIN DOWN ORBITALS
  NO   OCC          E(Eh)            E(eV)
   0   1.0000     -24.340942      -662.3507
   1   1.0000     -24.340942      -662.3507
   2   1.0000     -18.967506      -516.1321
   3   1.0000      -1.244326       -33.8598
   4   1.0000      -1.136934       -30.9376
   5   1.0000      -0.867607       -23.6088
   6   1.0000      -0.579625       -15.7724
   7   1.0000      -0.525073       -14.2880
   8   1.0000      -0.484193       -13.1756
   9   1.0000      -0.401735       -10.9318
  10   1.0000      -0.399705       -10.8765
  11   1.0000      -0.388135       -10.5617
  12   1.0000      -0.281026        -7.6471
  13   0.0000      -0.151811        -4.1310
  14   0.0000      -0.123694        -3.3659
  15   0.0000      -0.000359        -0.0098
  16   0.0000       0.025800         0.7021
  17   0.0000       0.028954         0.7879

MULLIKEN ATOMIC CHARGES AND SPIN POPULATIONS
--------------------------------------------
   0 O :    0.176075    0.000000
   1 F :   -0.088038   -0.000000
   2 F :   -0.088037   -0.000000
Sum of atomic charges         :    0.0000000

LOEWDIN ATOMIC CHARGES AND SPIN POPULATIONS
-------------------------------------------
   0 O :    0.092939   -0.000000
   1 F :   -0.046470   -0.000000
   2 F :   -0.046470    0.000000

  Mayer bond orders larger than 0.1
B(  0-O ,  1-F ) :   0.9853 B(  0-O ,  2-F ) :   0.9853

FINAL SINGLE POINT ENERGY      -274.564561331077

DIPOLE MOMENT
-------------
                                X             Y             Z
Electronic contribution:     -0.00000       0.00000      -0.37885
Nuclear contribution   :      0.00000       0.00000       0.48882
                        -----------------------------------------
Total Dipole Moment    :     -0.00000       0.00000       0.10997
                        -----------------------------------------
Magnitude (a.u.)       :      0.10997
Magnitude (Debye)      :      0.27952

Rotational constants in cm-1:     1.961530     0.366469     0.308780
Rotational constants in MHz : 58805.203962 10986.452921  9256.989069

                             ****ORCA TERMINATED NORMALLY****
TOTAL RUN TIME: 0 days 0 hours 42 minutes 32 seconds 591 msec
