                         Program Version 4.1.2  - RELEASE  -
|  1> !uks pbe nori aug-pc-4 grid5 nofinalgrid verytightscf
|  2>
|  3> %maxcore 1500
|  4>
|  5> %pal nprocs 4 end
|  6>
|  7> %scf
|  8> 	maxiter 200
|  9> end
| 10> %elprop
| 11> 	dipole true
| 12> 	 polar 1
| 13> 	 maxiter 200
| 14> end
| 15>
| 16> * xyz 0 2
| 17> O 0.0000 0.0000 0.0000
| 18> F 0.0000 0.0000 1.3541
| 19> *
| 20>
| 21>                          ****END OF INPUT****

CARTESIAN COORDINATES (ANGSTROEM)
---------------------------------
  O      0.000000    0.000000    0.000000
  F      0.000000    0.000000    1.354100

 Total Charge           Charge          ....    0
 Multiplicity           Mult            ....    2
 Number of Electrons    NEL             ....   17
 Basis Dimension        Dim             ....  290

ORBITAL ENERGIES
----------------
                 SPIN UP ORBITALS
  NO   OCC          E(Eh)            E(eV)
   0   1.0000     -24.367856      -663.0831
   1   1.0000     -18.907759      -514.5063
   2   1.0000      -1.230064       -33.4718
   3   1.0000      -0.871401       -23.7120
   4   1.0000      -0.530067       -14.4238
   5   1.0000      -0.497951       -13.5499
   6   1.0000      -0.464944       -12.6518
   7   1.0000      -0.333223        -9.0674
   8   1.0000      -0.279133        -7.5956
   9   0.0000      -0.097741        -2.6597
  10   0.0000       0.001660         0.0452
  11   0.0000       0.030774         0.8374
  12   0.0000       0.032356         0.8805
  13   0.0000       0.034708         0.9444

                 SPIN DOWN ORBITALS
  NO   OCC          E(Eh)            E(eV)
   0   1.0000     -24.362030      -662.9245
   1   1.0000     -18.886898      -513.9386
   2   1.0000      -1.213338       -33.0166
   3   1.0000      -0.829405       -22.5692
   4   1.0000      -0.513519       -13.9736
   5   1.0000      -0.457516       -12.4496
   6   1.0000      -0.453625       -12.3438
   7   1.0000      -0.262540        -7.1441
   8   0.0000      -0.240826        -6.5532
   9   0.0000      -0.077746        -2.1156
  10   0.0000       0.004210         0.1146
  11   0.0000       0.032238         0.8772
  12   0.0000       0.034067         0.9270

MULLIKEN ATOMIC CHARGES AND SPIN POPULATIONS
--------------------------------------------
   0 O :   -0.015646    0.834913
   1 F :    0.015646    0.165087
Sum of atomic charges         :   -0.0000000

LOEWDIN ATOMIC CHARGES AND SPIN POPULATIONS
-------------------------------------------
   0 O :    0.135468    0.727368
   1 F :   -0.135468    0.272632

  Mayer bond orders larger than 0.1
B(  0-O ,  1-F ) :   1.1996

FINAL SINGLE POINT ENERGY      -174.806092740740

DIPOLE MOMENT
-------------
                                X             Y             Z
Electronic contribution:     -0.00000      -0.00000       0.66067
Nuclear contribution   :      0.00000       0.00000      -0.58442
                        -----------------------------------------
Total Dipole Moment    :     -0.00000      -0.00000       0.07624
                        -----------------------------------------
Magnitude (a.u.)       :      0.07624
Magnitude (Debye)      :      0.19379

Rotational constants in cm-1:     0.000000     1.058584     1.058584
Rotational constants in MHz :     0.000000 31735.564190 31735.564190

                             ****ORCA TERMINATED NORMALLY****
TOTAL RUN TIME: 0 days 0 hours 8 minutes 40 seconds 673 msec
