                         Program Version 4.1.2  - RELEASE  -
|  1> !uks pbe nori aug-pc-4 grid5 nofinalgrid verytightscf
|  2>
|  3> %maxcore 1500
|  4>
|  5> %pal nprocs 4 end
|  6>
|  7> %scf
|  8> 	maxiter 200
|  9> end
| 10> %elprop
| 11> 	dipole true
| 12> 	 polar 1
| 13> 	 maxiter 200
| 14> end
| 15>
| 16> * xyz 0 1
| 17> P 0.0000 0.0000 0.0000
| 18> P 0.0000 0.0000 1.8934
| 19> *
| 20>
| 21>                          ****END OF INPUT****

CARTESIAN COORDINATES (ANGSTROEM)
---------------------------------
  P      0.000000    0.000000    0.000000
  P      0.000000    0.000000    1.893400

 Total Charge           Charge          ....    0
 Multiplicity           Mult            ....    1
 Number of Electrons    NEL             ....   30
 Basis Dimension        Dim             ....  282

ORBITAL ENERGIES
----------------
                 SPIN UP ORBITALS
  NO   OCC          E(Eh)            E(eV)
   0   1.0000     -76.306705     -2076.4110
   1   1.0000     -76.306705     -2076.4110
   2   1.0000      -6.325651      -172.1297
   3   1.0000      -6.325210      -172.1177
   4   1.0000      -4.541742      -123.5871
   5   1.0000      -4.541742      -123.5871
   6   1.0000      -4.541548      -123.5818
   7   1.0000      -4.541548      -123.5818
   8   1.0000      -4.537611      -123.4747
   9   1.0000      -4.535429      -123.4153
  10   1.0000      -0.621434       -16.9101
  11   1.0000      -0.423934       -11.5358
  12   1.0000      -0.264762        -7.2045
  13   1.0000      -0.261979        -7.1288
  14   1.0000      -0.261979        -7.1288
  15   0.0000      -0.125967        -3.4277
  16   0.0000      -0.125967        -3.4277
  17   0.0000      -0.008656        -0.2355
  18   0.0000      -0.003933        -0.1070
  19   0.0000       0.012733         0.3465

                 SPIN DOWN ORBITALS
  NO   OCC          E(Eh)            E(eV)
   0   1.0000     -76.306705     -2076.4110
   1   1.0000     -76.306705     -2076.4110
   2   1.0000      -6.325651      -172.1297
   3   1.0000      -6.325210      -172.1177
   4   1.0000      -4.541742      -123.5871
   5   1.0000      -4.541742      -123.5871
   6   1.0000      -4.541548      -123.5818
   7   1.0000      -4.541548      -123.5818
   8   1.0000      -4.537611      -123.4747
   9   1.0000      -4.535429      -123.4153
  10   1.0000      -0.621434       -16.9101
  11   1.0000      -0.423934       -11.5358
  12   1.0000      -0.264762        -7.2045
  13   1.0000      -0.261979        -7.1288
  14   1.0000      -0.261979        -7.1288
  15   0.0000      -0.125967        -3.4277
  16   0.0000      -0.125967        -3.4277
  17   0.0000      -0.008656        -0.2355
  18   0.0000      -0.003933        -0.1070
  19   0.0000       0.012733         0.3465

MULLIKEN ATOMIC CHARGES AND SPIN POPULATIONS
--------------------------------------------
   0 P :   -0.000000    0.000000
   1 P :    0.000000   -0.000000
Sum of atomic charges         :   -0.0000000

LOEWDIN ATOMIC CHARGES AND SPIN POPULATIONS
-------------------------------------------
   0 P :   -0.000000    0.000000
   1 P :    0.000000   -0.000000

  Mayer bond orders larger than 0.1
B(  0-P ,  1-P ) :   2.8259

FINAL SINGLE POINT ENERGY      -682.425080294278

DIPOLE MOMENT
-------------
                                X             Y             Z
Electronic contribution:     -0.00000      -0.00000       0.00000
Nuclear contribution   :      0.00000       0.00000       0.00000
                        -----------------------------------------
Total Dipole Moment    :     -0.00000      -0.00000       0.00000
                        -----------------------------------------
Magnitude (a.u.)       :      0.00000
Magnitude (Debye)      :      0.00000

Rotational constants in cm-1:     0.000000     0.303630     0.303630
Rotational constants in MHz :     0.000000  9102.602123  9102.602123

                             ****ORCA TERMINATED NORMALLY****
TOTAL RUN TIME: 0 days 0 hours 12 minutes 22 seconds 297 msec
