                         Program Version 4.1.2  - RELEASE  -
|  1> !uks pbe nori aug-pc-4 grid5 nofinalgrid verytightscf
|  2>
|  3> %maxcore 1500
|  4>
|  5> %pal nprocs 4 end
|  6>
|  7> %scf
|  8> 	maxiter 200
|  9> end
| 10> %elprop
| 11> 	dipole true
| 12> 	 polar 1
| 13> 	 maxiter 200
| 14> end
| 15>
| 16> * xyz 0 1
| 17> P 0.0000000000 1.1100000000 -0.0858000000
| 18> P 0.0000000000 -1.1100000000 -0.0858000000
| 19> H -0.2026000000 1.3478000000 1.2905000000
| 20> H 1.4045000000 1.2216000000 -0.0032000000
| 21> H 0.2026000000 -1.3478000000 1.2905000000
| 22> H -1.4045000000 -1.2216000000 -0.0032000000
| 23> *
| 24>
| 25>                          ****END OF INPUT****

CARTESIAN COORDINATES (ANGSTROEM)
---------------------------------
  P      0.000000    1.110000   -0.085800
  P      0.000000   -1.110000   -0.085800
  H     -0.202600    1.347800    1.290500
  H      1.404500    1.221600   -0.003200
  H      0.202600   -1.347800    1.290500
  H     -1.404500   -1.221600   -0.003200

 Total Charge           Charge          ....    0
 Multiplicity           Mult            ....    1
 Number of Electrons    NEL             ....   34
 Basis Dimension        Dim             ....  634

ORBITAL ENERGIES
----------------
                 SPIN UP ORBITALS
  NO   OCC          E(Eh)            E(eV)
   0   1.0000     -76.287526     -2075.8891
   1   1.0000     -76.287526     -2075.8891
   2   1.0000      -6.307659      -171.6401
   3   1.0000      -6.307611      -171.6388
   4   1.0000      -4.523696      -123.0960
   5   1.0000      -4.523416      -123.0884
   6   1.0000      -4.522964      -123.0761
   7   1.0000      -4.522960      -123.0760
   8   1.0000      -4.519046      -122.9695
   9   1.0000      -4.518997      -122.9682
  10   1.0000      -0.625130       -17.0106
  11   1.0000      -0.533839       -14.5265
  12   1.0000      -0.363721        -9.8973
  13   1.0000      -0.362552        -9.8655
  14   1.0000      -0.318425        -8.6648
  15   1.0000      -0.246844        -6.7170
  16   1.0000      -0.235926        -6.4199
  17   0.0000      -0.045139        -1.2283
  18   0.0000      -0.039612        -1.0779
  19   0.0000      -0.028968        -0.7883
  20   0.0000      -0.004156        -0.1131
  21   0.0000       0.009838         0.2677

                 SPIN DOWN ORBITALS
  NO   OCC          E(Eh)            E(eV)
   0   1.0000     -76.287526     -2075.8891
   1   1.0000     -76.287526     -2075.8891
   2   1.0000      -6.307659      -171.6401
   3   1.0000      -6.307611      -171.6388
   4   1.0000      -4.523696      -123.0960
   5   1.0000      -4.523416      -123.0884
   6   1.0000      -4.522964      -123.0761
   7   1.0000      -4.522960      -123.0760
   8   1.0000      -4.519046      -122.9695
   9   1.0000      -4.518997      -122.9682
  10   1.0000      -0.625130       -17.0106
  11   1.0000      -0.533839       -14.5265
  12   1.0000      -0.363721        -9.8973
  13   1.0000      -0.362552        -9.8655
  14   1.0000      -0.318425        -8.6648
  15   1.0000      -0.246844        -6.7170
  16   1.0000      -0.235926        -6.4199
  17   0.0000      -0.045139        -1.2283
  18   0.0000      -0.039612        -1.0779
  19   0.0000      -0.028968        -0.7883
  20   0.0000      -0.004156        -0.1131
  21   0.0000       0.009838         0.2677

MULLIKEN ATOMIC CHARGES AND SPIN POPULATIONS
--------------------------------------------
   0 P :   -0.358564   -0.000000
   1 P :   -0.358663   -0.000000
   2 H :    0.148847    0.000000
   3 H :    0.209768    0.000000
   4 H :    0.148895   -0.000000
   5 H :    0.209717    0.000000
Sum of atomic charges         :    0.0000000

LOEWDIN ATOMIC CHARGES AND SPIN POPULATIONS
-------------------------------------------
   0 P :    1.559162   -0.000000
   1 P :    1.559162   -0.000000
   2 H :   -0.773217    0.000000
   3 H :   -0.785945    0.000000
   4 H :   -0.773217    0.000000
   5 H :   -0.785945    0.000000

  Mayer bond orders larger than 0.1
B(  0-P ,  1-P ) :   1.4842 B(  0-P ,  2-H ) :   0.8829 B(  0-P ,  3-H ) :   0.8464
B(  0-P ,  5-H ) :  -0.1793 B(  1-P ,  3-H ) :  -0.1793 B(  1-P ,  4-H ) :   0.8828
B(  1-P ,  5-H ) :   0.8464

FINAL SINGLE POINT ENERGY      -684.821181171047

DIPOLE MOMENT
-------------
                                X             Y             Z
Electronic contribution:      0.00000      -0.00000      -2.26908
Nuclear contribution   :      0.00000       0.00000       2.64979
                        -----------------------------------------
Total Dipole Moment    :      0.00000      -0.00000       0.38070
                        -----------------------------------------
Magnitude (a.u.)       :      0.38070
Magnitude (Debye)      :      0.96767

Rotational constants in cm-1:     2.202492     0.194201     0.193641
Rotational constants in MHz : 66029.037690  5821.996050  5805.198286

                             ****ORCA TERMINATED NORMALLY****
TOTAL RUN TIME: 0 days 2 hours 18 minutes 13 seconds 270 msec
