                         Program Version 4.1.2  - RELEASE  -
|  1> !uks pbe nori aug-pc-4 grid5 nofinalgrid verytightscf
|  2>
|  3> %maxcore 1500
|  4>
|  5> %pal nprocs 4 end
|  6>
|  7> %scf
|  8> 	maxiter 200
|  9> end
| 10> %elprop
| 11> 	dipole true
| 12> 	 polar 1
| 13> 	 maxiter 200
| 14> end
| 15>
| 16> * xyz 0 2
| 17> P 0.0000 0.0000 0.0000
| 18> H 0.0000 1.0229 0.9964
| 19> H 0.0000 -1.0229 0.9964
| 20> *
| 21>
| 22>                          ****END OF INPUT****

CARTESIAN COORDINATES (ANGSTROEM)
---------------------------------
  P      0.000000    0.000000    0.000000
  H      0.000000    1.022900    0.996400
  H      0.000000   -1.022900    0.996400

 Total Charge           Charge          ....    0
 Multiplicity           Mult            ....    2
 Number of Electrons    NEL             ....   17
 Basis Dimension        Dim             ....  317

ORBITAL ENERGIES
----------------
                 SPIN UP ORBITALS
  NO   OCC          E(Eh)            E(eV)
   0   1.0000     -76.299721     -2076.2210
   1   1.0000      -6.318006      -171.9217
   2   1.0000      -4.538060      -123.4869
   3   1.0000      -4.532189      -123.3271
   4   1.0000      -4.528984      -123.2399
   5   1.0000      -0.578579       -15.7439
   6   1.0000      -0.349319        -9.5054
   7   1.0000      -0.278757        -7.5854
   8   1.0000      -0.222109        -6.0439
   9   0.0000      -0.025751        -0.7007
  10   0.0000      -0.017443        -0.4747
  11   0.0000       0.012698         0.3455
  12   0.0000       0.014234         0.3873
  13   0.0000       0.015235         0.4146

                 SPIN DOWN ORBITALS
  NO   OCC          E(Eh)            E(eV)
   0   1.0000     -76.296170     -2076.1243
   1   1.0000      -6.314066      -171.8145
   2   1.0000      -4.529775      -123.2615
   3   1.0000      -4.527079      -123.1881
   4   1.0000      -4.526735      -123.1787
   5   1.0000      -0.553272       -15.0553
   6   1.0000      -0.342871        -9.3300
   7   1.0000      -0.266168        -7.2428
   8   0.0000      -0.154185        -4.1956
   9   0.0000      -0.018337        -0.4990
  10   0.0000      -0.012390        -0.3372
  11   0.0000       0.015400         0.4190
  12   0.0000       0.017482         0.4757

MULLIKEN ATOMIC CHARGES AND SPIN POPULATIONS
--------------------------------------------
   0 P :   -0.005575    1.092848
   1 H :    0.002787   -0.046424
   2 H :    0.002788   -0.046424
Sum of atomic charges         :    0.0000000

LOEWDIN ATOMIC CHARGES AND SPIN POPULATIONS
-------------------------------------------
   0 P :    1.620857    0.619255
   1 H :   -0.810429    0.190373
   2 H :   -0.810429    0.190373

  Mayer bond orders larger than 0.1
B(  0-P ,  1-H ) :   0.9857 B(  0-P ,  2-H ) :   0.9857

FINAL SINGLE POINT ENERGY      -342.361980213858

DIPOLE MOMENT
-------------
                                X             Y             Z
Electronic contribution:     -0.00000      -0.00000      -1.59898
Nuclear contribution   :      0.00000       0.00000       1.80975
                        -----------------------------------------
Total Dipole Moment    :     -0.00000      -0.00000       0.21077
                        -----------------------------------------
Magnitude (a.u.)       :      0.21077
Magnitude (Debye)      :      0.53574

Rotational constants in cm-1:     8.970651     7.991716     4.226467
Rotational constants in MHz : 268933.348911 239585.603970 126706.307526

                             ****ORCA TERMINATED NORMALLY****
TOTAL RUN TIME: 0 days 0 hours 10 minutes 34 seconds 989 msec
