                         Program Version 4.1.2  - RELEASE  -
|  1> !uks pbe nori aug-pc-4 grid5 nofinalgrid verytightscf
|  2>
|  3> %maxcore 1500
|  4>
|  5> %pal nprocs 4 end
|  6>
|  7> %scf
|  8> 	maxiter 200
|  9> end
| 10> %elprop
| 11> 	dipole true
| 12> 	 polar 1
| 13> 	 maxiter 200
| 14> end
| 15>
| 16> * xyz 0 1
| 17> P 0.0000 0.0000 0.0000
| 18> H 0.0000 -1.1932 -0.7717
| 19> H 1.0333 0.5966 -0.7717
| 20> H -1.0333 0.5966 -0.7717
| 21> *
| 22>
| 23>                          ****END OF INPUT****

CARTESIAN COORDINATES (ANGSTROEM)
---------------------------------
  P      0.000000    0.000000    0.000000
  H      0.000000   -1.193200   -0.771700
  H      1.033300    0.596600   -0.771700
  H     -1.033300    0.596600   -0.771700

 Total Charge           Charge          ....    0
 Multiplicity           Mult            ....    1
 Number of Electrons    NEL             ....   18
 Basis Dimension        Dim             ....  405

ORBITAL ENERGIES
----------------
                 SPIN UP ORBITALS
  NO   OCC          E(Eh)            E(eV)
   0   1.0000     -76.279289     -2075.6650
   1   1.0000      -6.300604      -171.4481
   2   1.0000      -4.516170      -122.8912
   3   1.0000      -4.516170      -122.8912
   4   1.0000      -4.511832      -122.7732
   5   1.0000      -0.586752       -15.9663
   6   1.0000      -0.346125        -9.4185
   7   1.0000      -0.346123        -9.4185
   8   1.0000      -0.246821        -6.7163
   9   0.0000      -0.024716        -0.6726
  10   0.0000      -0.013533        -0.3682
  11   0.0000      -0.013532        -0.3682
  12   0.0000       0.013922         0.3788
  13   0.0000       0.013922         0.3788

                 SPIN DOWN ORBITALS
  NO   OCC          E(Eh)            E(eV)
   0   1.0000     -76.279289     -2075.6650
   1   1.0000      -6.300604      -171.4481
   2   1.0000      -4.516170      -122.8912
   3   1.0000      -4.516170      -122.8912
   4   1.0000      -4.511832      -122.7732
   5   1.0000      -0.586752       -15.9663
   6   1.0000      -0.346125        -9.4185
   7   1.0000      -0.346123        -9.4185
   8   1.0000      -0.246821        -6.7163
   9   0.0000      -0.024716        -0.6726
  10   0.0000      -0.013533        -0.3682
  11   0.0000      -0.013532        -0.3682
  12   0.0000       0.013922         0.3788
  13   0.0000       0.013922         0.3788

MULLIKEN ATOMIC CHARGES AND SPIN POPULATIONS
--------------------------------------------
   0 P :   -0.102409    0.000000
   1 H :    0.034334    0.000000
   2 H :    0.034038   -0.000000
   3 H :    0.034036   -0.000000
Sum of atomic charges         :    0.0000000

LOEWDIN ATOMIC CHARGES AND SPIN POPULATIONS
-------------------------------------------
   0 P :    1.934915    0.000000
   1 H :   -0.644954    0.000000
   2 H :   -0.644981   -0.000000
   3 H :   -0.644981   -0.000000

  Mayer bond orders larger than 0.1
B(  0-P ,  1-H ) :   0.9616 B(  0-P ,  2-H ) :   0.9614 B(  0-P ,  3-H ) :   0.9615

FINAL SINGLE POINT ENERGY      -342.996943975265

DIPOLE MOMENT
-------------
                                X             Y             Z
Electronic contribution:      0.00000       0.00000       1.80305
Nuclear contribution   :      0.00000       0.00000      -2.04011
                        -----------------------------------------
Total Dipole Moment    :      0.00000       0.00000      -0.23707
                        -----------------------------------------
Magnitude (a.u.)       :      0.23707
Magnitude (Debye)      :      0.60257

Rotational constants in cm-1:     4.444202     4.444000     3.915670
Rotational constants in MHz : 133233.835516 133227.760900 117388.830082

                             ****ORCA TERMINATED NORMALLY****
TOTAL RUN TIME: 0 days 0 hours 22 minutes 29 seconds 686 msec
