                         Program Version 4.1.2  - RELEASE  -
|  1> !uks pbe nori aug-pc-4 grid5 nofinalgrid verytightscf
|  2>
|  3> %maxcore 1500
|  4>
|  5> %pal nprocs 4 end
|  6>
|  7> %scf
|  8> 	maxiter 200
|  9> end
| 10> %elprop
| 11> 	dipole true
| 12> 	 polar 1
| 13> 	 maxiter 200
| 14> end
| 15>
| 16> * xyz 0 3
| 17> H 0.0000 0.0000 0.0000
| 18> P 0.0000 0.0000 1.4223
| 19> *
| 20>
| 21>                          ****END OF INPUT****

CARTESIAN COORDINATES (ANGSTROEM)
---------------------------------
  H      0.000000    0.000000    0.000000
  P      0.000000    0.000000    1.422300

 Total Charge           Charge          ....    0
 Multiplicity           Mult            ....    3
 Number of Electrons    NEL             ....   16
 Basis Dimension        Dim             ....  229

ORBITAL ENERGIES
----------------
                 SPIN UP ORBITALS
  NO   OCC          E(Eh)            E(eV)
   0   1.0000     -76.316540     -2076.6786
   1   1.0000      -6.332412      -172.3137
   2   1.0000      -4.550888      -123.8360
   3   1.0000      -4.550888      -123.8360
   4   1.0000      -4.543481      -123.6344
   5   1.0000      -0.565780       -15.3957
   6   1.0000      -0.313878        -8.5411
   7   1.0000      -0.227162        -6.1814
   8   1.0000      -0.227162        -6.1814
   9   0.0000      -0.024945        -0.6788
  10   0.0000       0.005071         0.1380
  11   0.0000       0.013836         0.3765
  12   0.0000       0.013836         0.3765
  13   0.0000       0.014143         0.3849

                 SPIN DOWN ORBITALS
  NO   OCC          E(Eh)            E(eV)
   0   1.0000     -76.309484     -2076.4866
   1   1.0000      -6.324691      -172.1036
   2   1.0000      -4.539023      -123.5131
   3   1.0000      -4.537695      -123.4769
   4   1.0000      -4.537695      -123.4769
   5   1.0000      -0.511232       -13.9113
   6   1.0000      -0.291108        -7.9215
   7   0.0000      -0.145869        -3.9693
   8   0.0000      -0.145869        -3.9693
   9   0.0000      -0.010001        -0.2722
  10   0.0000       0.018818         0.5121
  11   0.0000       0.026765         0.7283

MULLIKEN ATOMIC CHARGES AND SPIN POPULATIONS
--------------------------------------------
   0 H :    0.008742   -0.070497
   1 P :   -0.008742    2.070497
Sum of atomic charges         :   -0.0000000

LOEWDIN ATOMIC CHARGES AND SPIN POPULATIONS
-------------------------------------------
   0 H :   -1.092612    0.492711
   1 P :    1.092612    1.507289

  Mayer bond orders larger than 0.1
B(  0-H ,  1-P ) :   1.0354

FINAL SINGLE POINT ENERGY      -341.734818963573

DIPOLE MOMENT
-------------
                                X             Y             Z
Electronic contribution:      0.00000       0.00000       1.16704
Nuclear contribution   :      0.00000       0.00000      -1.33237
                        -----------------------------------------
Total Dipole Moment    :      0.00000       0.00000      -0.16533
                        -----------------------------------------
Magnitude (a.u.)       :      0.16533
Magnitude (Debye)      :      0.42022

Rotational constants in cm-1:     0.000000     8.536155     8.536155
Rotational constants in MHz :     0.000000 255907.477930 255907.477930

                             ****ORCA TERMINATED NORMALLY****
TOTAL RUN TIME: 0 days 0 hours 4 minutes 5 seconds 58 msec
