                         Program Version 4.1.2  - RELEASE  -
|  1> !uks pbe nori aug-pc-4 grid5 nofinalgrid verytightscf
|  2>
|  3> %maxcore 1500
|  4>
|  5> %pal nprocs 4 end
|  6>
|  7> %scf
|  8> 	maxiter 200
|  9> end
| 10> %elprop
| 11> 	dipole true
| 12> 	 polar 1
| 13> 	 maxiter 200
| 14> end
| 15>
| 16> * xyz 0 2
| 17> S 0.0000 0.0000 0.0000
| 18> P 0.0000 0.0000 1.9000
| 19> *
| 20>
| 21>                          ****END OF INPUT****

CARTESIAN COORDINATES (ANGSTROEM)
---------------------------------
  S      0.000000    0.000000    0.000000
  P      0.000000    0.000000    1.900000

 Total Charge           Charge          ....    0
 Multiplicity           Mult            ....    2
 Number of Electrons    NEL             ....   31
 Basis Dimension        Dim             ....  282

ORBITAL ENERGIES
----------------
                 SPIN UP ORBITALS
  NO   OCC          E(Eh)            E(eV)
   0   1.0000     -88.062280     -2396.2965
   1   1.0000     -76.335037     -2077.1820
   2   1.0000      -7.700751      -209.5481
   3   1.0000      -6.350269      -172.7996
   4   1.0000      -5.719912      -155.6467
   5   1.0000      -5.717480      -155.5806
   6   1.0000      -5.715858      -155.5364
   7   1.0000      -4.569366      -124.3388
   8   1.0000      -4.564620      -124.2096
   9   1.0000      -4.562634      -124.1556
  10   1.0000      -0.706875       -19.2350
  11   1.0000      -0.490788       -13.3550
  12   1.0000      -0.314600        -8.5607
  13   1.0000      -0.304541        -8.2870
  14   1.0000      -0.302642        -8.2353
  15   1.0000      -0.169972        -4.6252
  16   0.0000      -0.165490        -4.5032
  17   0.0000      -0.021869        -0.5951
  18   0.0000      -0.013337        -0.3629
  19   0.0000       0.010213         0.2779
  20   0.0000       0.011713         0.3187

                 SPIN DOWN ORBITALS
  NO   OCC          E(Eh)            E(eV)
   0   1.0000     -88.060842     -2396.2573
   1   1.0000     -76.332361     -2077.1091
   2   1.0000      -7.699315      -209.5090
   3   1.0000      -6.347440      -172.7226
   4   1.0000      -5.719286      -155.6297
   5   1.0000      -5.716667      -155.5584
   6   1.0000      -5.711365      -155.4141
   7   1.0000      -4.567562      -124.2897
   8   1.0000      -4.561040      -124.1122
   9   1.0000      -4.556577      -123.9908
  10   1.0000      -0.699231       -19.0270
  11   1.0000      -0.471139       -12.8203
  12   1.0000      -0.304038        -8.2733
  13   1.0000      -0.300676        -8.1818
  14   1.0000      -0.279394        -7.6027
  15   0.0000      -0.156754        -4.2655
  16   0.0000      -0.127924        -3.4810
  17   0.0000      -0.015377        -0.4184
  18   0.0000      -0.006874        -0.1871
  19   0.0000       0.013920         0.3788

MULLIKEN ATOMIC CHARGES AND SPIN POPULATIONS
--------------------------------------------
   0 S :   -0.026888    0.365915
   1 P :    0.026888    0.634085
Sum of atomic charges         :   -0.0000000

LOEWDIN ATOMIC CHARGES AND SPIN POPULATIONS
-------------------------------------------
   0 S :   -0.021096    0.408070
   1 P :    0.021096    0.591930

  Mayer bond orders larger than 0.1
B(  0-S ,  1-P ) :   2.4000

FINAL SINGLE POINT ENERGY      -739.248168861476

DIPOLE MOMENT
-------------
                                X             Y             Z
Electronic contribution:     -0.00000      -0.00000       1.03072
Nuclear contribution   :      0.00000       0.00000      -0.83642
                        -----------------------------------------
Total Dipole Moment    :     -0.00000      -0.00000       0.19430
                        -----------------------------------------
Magnitude (a.u.)       :      0.19430
Magnitude (Debye)      :      0.49387

Rotational constants in cm-1:     0.000000     0.296417     0.296417
Rotational constants in MHz :     0.000000  8886.371340  8886.371340

                             ****ORCA TERMINATED NORMALLY****
TOTAL RUN TIME: 0 days 0 hours 19 minutes 40 seconds 958 msec
