                         Program Version 4.1.2  - RELEASE  -
|  1> !uks pbe nori aug-pc-4 grid5 nofinalgrid verytightscf
|  2>
|  3> %maxcore 1500
|  4>
|  5> %pal nprocs 4 end
|  6>
|  7> %scf
|  8> 	maxiter 200
|  9> end
| 10> %elprop
| 11> 	dipole true
| 12> 	 polar 1
| 13> 	 maxiter 200
| 14> end
| 15>
| 16> * xyz 0 3
| 17> S 0.0000 0.0000 0.0000
| 18> S 0.0000 0.0000 1.8892
| 19> *
| 20>
| 21>                          ****END OF INPUT****

CARTESIAN COORDINATES (ANGSTROEM)
---------------------------------
  S      0.000000    0.000000    0.000000
  S      0.000000    0.000000    1.889200

 Total Charge           Charge          ....    0
 Multiplicity           Mult            ....    3
 Number of Electrons    NEL             ....   32
 Basis Dimension        Dim             ....  282

ORBITAL ENERGIES
----------------
                 SPIN UP ORBITALS
  NO   OCC          E(Eh)            E(eV)
   0   1.0000     -88.085849     -2396.9378
   1   1.0000     -88.085849     -2396.9378
   2   1.0000      -7.722039      -210.1274
   3   1.0000      -7.721877      -210.1230
   4   1.0000      -5.740591      -156.2094
   5   1.0000      -5.739779      -156.1873
   6   1.0000      -5.739671      -156.1844
   7   1.0000      -5.739671      -156.1844
   8   1.0000      -5.739606      -156.1826
   9   1.0000      -5.739606      -156.1826
  10   1.0000      -0.771031       -20.9808
  11   1.0000      -0.572814       -15.5871
  12   1.0000      -0.366238        -9.9658
  13   1.0000      -0.340183        -9.2569
  14   1.0000      -0.340183        -9.2569
  15   1.0000      -0.213767        -5.8169
  16   1.0000      -0.213767        -5.8169
  17   0.0000      -0.047919        -1.3040
  18   0.0000      -0.011147        -0.3033
  19   0.0000       0.012900         0.3510
  20   0.0000       0.012900         0.3510
  21   0.0000       0.018672         0.5081

                 SPIN DOWN ORBITALS
  NO   OCC          E(Eh)            E(eV)
   0   1.0000     -88.080855     -2396.8019
   1   1.0000     -88.080855     -2396.8019
   2   1.0000      -7.717054      -209.9917
   3   1.0000      -7.716891      -209.9873
   4   1.0000      -5.737655      -156.1295
   5   1.0000      -5.736840      -156.1073
   6   1.0000      -5.730841      -155.9441
   7   1.0000      -5.730841      -155.9441
   8   1.0000      -5.730776      -155.9423
   9   1.0000      -5.730776      -155.9423
  10   1.0000      -0.750249       -20.4153
  11   1.0000      -0.531583       -14.4651
  12   1.0000      -0.345621        -9.4048
  13   1.0000      -0.306472        -8.3395
  14   1.0000      -0.306472        -8.3395
  15   0.0000      -0.165813        -4.5120
  16   0.0000      -0.165813        -4.5120
  17   0.0000      -0.032043        -0.8719
  18   0.0000      -0.001928        -0.0525
  19   0.0000       0.018850         0.5129

MULLIKEN ATOMIC CHARGES AND SPIN POPULATIONS
--------------------------------------------
   0 S :   -0.000000    1.000000
   1 S :    0.000000    1.000000
Sum of atomic charges         :   -0.0000000

LOEWDIN ATOMIC CHARGES AND SPIN POPULATIONS
-------------------------------------------
   0 S :   -0.000000    1.000000
   1 S :    0.000000    1.000000

  Mayer bond orders larger than 0.1
B(  0-S ,  1-S ) :   2.1131

FINAL SINGLE POINT ENERGY      -796.089111785050

DIPOLE MOMENT
-------------
                                X             Y             Z
Electronic contribution:      0.00000       0.00000       0.00000
Nuclear contribution   :      0.00000       0.00000       0.00000
                        -----------------------------------------
Total Dipole Moment    :      0.00000       0.00000       0.00000
                        -----------------------------------------
Magnitude (a.u.)       :      0.00000
Magnitude (Debye)      :      0.00000

Rotational constants in cm-1:     0.000000     0.294651     0.294651
Rotational constants in MHz :     0.000000  8833.406323  8833.406323

                             ****ORCA TERMINATED NORMALLY****
TOTAL RUN TIME: 0 days 0 hours 12 minutes 7 seconds 302 msec
