                         Program Version 4.1.2  - RELEASE  -
|  1> !uks pbe nori aug-pc-4 grid5 nofinalgrid verytightscf
|  2>
|  3> %maxcore 1500
|  4>
|  5> %pal nprocs 4 end
|  6>
|  7> %scf
|  8> 	maxiter 200
|  9> end
| 10> %elprop
| 11> 	dipole true
| 12> 	 polar 1
| 13> 	 maxiter 200
| 14> end
| 15>
| 16> * xyz 0 1
| 17> S 0.0000 1.0282 -0.0552
| 18> S 0.0000 -1.0282 -0.0552
| 19> H 0.9425 1.2122 0.8824
| 20> H -0.9425 -1.2122 0.8824
| 21> *
| 22>
| 23>                          ****END OF INPUT****

CARTESIAN COORDINATES (ANGSTROEM)
---------------------------------
  S      0.000000    1.028200   -0.055200
  S      0.000000   -1.028200   -0.055200
  H      0.942500    1.212200    0.882400
  H     -0.942500   -1.212200    0.882400

 Total Charge           Charge          ....    0
 Multiplicity           Mult            ....    1
 Number of Electrons    NEL             ....   34
 Basis Dimension        Dim             ....  458

ORBITAL ENERGIES
----------------
                 SPIN UP ORBITALS
  NO   OCC          E(Eh)            E(eV)
   0   1.0000     -88.063281     -2396.3237
   1   1.0000     -88.063281     -2396.3237
   2   1.0000      -7.700810      -209.5497
   3   1.0000      -7.700764      -209.5484
   4   1.0000      -5.723010      -155.7310
   5   1.0000      -5.722779      -155.7247
   6   1.0000      -5.718298      -155.6028
   7   1.0000      -5.718259      -155.6017
   8   1.0000      -5.711216      -155.4101
   9   1.0000      -5.711216      -155.4101
  10   1.0000      -0.741807       -20.1856
  11   1.0000      -0.613133       -16.6842
  12   1.0000      -0.417380       -11.3575
  13   1.0000      -0.371213       -10.1012
  14   1.0000      -0.328207        -8.9310
  15   1.0000      -0.234479        -6.3805
  16   1.0000      -0.233555        -6.3554
  17   0.0000      -0.078796        -2.1442
  18   0.0000      -0.039933        -1.0866
  19   0.0000      -0.021706        -0.5906
  20   0.0000       0.011630         0.3165
  21   0.0000       0.015090         0.4106

                 SPIN DOWN ORBITALS
  NO   OCC          E(Eh)            E(eV)
   0   1.0000     -88.063281     -2396.3237
   1   1.0000     -88.063281     -2396.3237
   2   1.0000      -7.700810      -209.5497
   3   1.0000      -7.700764      -209.5484
   4   1.0000      -5.723010      -155.7310
   5   1.0000      -5.722779      -155.7247
   6   1.0000      -5.718298      -155.6028
   7   1.0000      -5.718259      -155.6017
   8   1.0000      -5.711216      -155.4101
   9   1.0000      -5.711216      -155.4101
  10   1.0000      -0.741807       -20.1856
  11   1.0000      -0.613133       -16.6842
  12   1.0000      -0.417380       -11.3575
  13   1.0000      -0.371213       -10.1012
  14   1.0000      -0.328207        -8.9310
  15   1.0000      -0.234479        -6.3805
  16   1.0000      -0.233555        -6.3554
  17   0.0000      -0.078796        -2.1442
  18   0.0000      -0.039933        -1.0866
  19   0.0000      -0.021706        -0.5906
  20   0.0000       0.011630         0.3165
  21   0.0000       0.015090         0.4106

MULLIKEN ATOMIC CHARGES AND SPIN POPULATIONS
--------------------------------------------
   0 S :   -0.080862   -0.000000
   1 S :   -0.080878    0.000000
   2 H :    0.080853    0.000000
   3 H :    0.080888   -0.000000
Sum of atomic charges         :   -0.0000000

LOEWDIN ATOMIC CHARGES AND SPIN POPULATIONS
-------------------------------------------
   0 S :    1.152167   -0.000000
   1 S :    1.152167    0.000000
   2 H :   -1.152167   -0.000000
   3 H :   -1.152167   -0.000000

  Mayer bond orders larger than 0.1
B(  0-S ,  1-S ) :   1.2012 B(  0-S ,  2-H ) :   1.0138 B(  1-S ,  3-H ) :   1.0138

FINAL SINGLE POINT ENERGY      -797.298072608775

DIPOLE MOMENT
-------------
                                X             Y             Z
Electronic contribution:      0.00000      -0.00000      -1.27793
Nuclear contribution   :      0.00000       0.00000       1.70730
                        -----------------------------------------
Total Dipole Moment    :      0.00000      -0.00000       0.42937
                        -----------------------------------------
Magnitude (a.u.)       :      0.42937
Magnitude (Debye)      :      1.09137

Rotational constants in cm-1:     4.911601     0.232389     0.232376
Rotational constants in MHz : 147246.083734  6966.854548  6966.446385

                             ****ORCA TERMINATED NORMALLY****
TOTAL RUN TIME: 0 days 0 hours 51 minutes 24 seconds 365 msec
