                         Program Version 4.1.2  - RELEASE  -
|  1> !uks pbe nori aug-pc-4 grid5 nofinalgrid verytightscf
|  2>
|  3> %maxcore 1500
|  4>
|  5> %pal nprocs 4 end
|  6>
|  7> %scf
|  8> 	maxiter 200
|  9> end
| 10> %elprop
| 11> 	dipole true
| 12> 	 polar 1
| 13> 	 maxiter 200
| 14> end
| 15>
| 16> * xyz 0 1
| 17> S 0.0000 0.0000 0.8544
| 18> Cl 0.0000 1.5740 -0.4021
| 19> Cl 0.0000 -1.5740 -0.4021
| 20> *
| 21>
| 22>                          ****END OF INPUT****

CARTESIAN COORDINATES (ANGSTROEM)
---------------------------------
  S      0.000000    0.000000    0.854400
  Cl     0.000000    1.574000   -0.402100
  Cl     0.000000   -1.574000   -0.402100

 Total Charge           Charge          ....    0
 Multiplicity           Mult            ....    1
 Number of Electrons    NEL             ....   50
 Basis Dimension        Dim             ....  423

ORBITAL ENERGIES
----------------
                 SPIN UP ORBITALS
  NO   OCC          E(Eh)            E(eV)
   0   1.0000    -100.689725     -2739.9067
   1   1.0000    -100.689725     -2739.9067
   2   1.0000     -88.129655     -2398.1298
   3   1.0000      -9.212405      -250.6823
   4   1.0000      -9.212405      -250.6823
   5   1.0000      -7.760289      -211.1682
   6   1.0000      -7.035911      -191.4569
   7   1.0000      -7.035911      -191.4569
   8   1.0000      -7.025674      -191.1783
   9   1.0000      -7.025674      -191.1783
  10   1.0000      -7.023766      -191.1264
  11   1.0000      -7.023766      -191.1264
  12   1.0000      -5.784333      -157.3997
  13   1.0000      -5.780879      -157.3057
  14   1.0000      -5.767508      -156.9419
  15   1.0000      -0.846772       -23.0418
  16   1.0000      -0.782124       -21.2827
  17   1.0000      -0.622360       -16.9353
  18   1.0000      -0.440746       -11.9933
  19   1.0000      -0.398492       -10.8435
  20   1.0000      -0.365233        -9.9385
  21   1.0000      -0.316417        -8.6102
  22   1.0000      -0.313292        -8.5251
  23   1.0000      -0.304645        -8.2898
  24   1.0000      -0.216675        -5.8960
  25   0.0000      -0.123781        -3.3682
  26   0.0000      -0.111426        -3.0321
  27   0.0000      -0.013100        -0.3565
  28   0.0000       0.010938         0.2976
  29   0.0000       0.011602         0.3157

                 SPIN DOWN ORBITALS
  NO   OCC          E(Eh)            E(eV)
   0   1.0000    -100.689725     -2739.9067
   1   1.0000    -100.689725     -2739.9067
   2   1.0000     -88.129655     -2398.1298
   3   1.0000      -9.212405      -250.6823
   4   1.0000      -9.212405      -250.6823
   5   1.0000      -7.760289      -211.1682
   6   1.0000      -7.035911      -191.4569
   7   1.0000      -7.035911      -191.4569
   8   1.0000      -7.025674      -191.1783
   9   1.0000      -7.025674      -191.1783
  10   1.0000      -7.023766      -191.1264
  11   1.0000      -7.023766      -191.1264
  12   1.0000      -5.784333      -157.3997
  13   1.0000      -5.780879      -157.3057
  14   1.0000      -5.767508      -156.9419
  15   1.0000      -0.846772       -23.0418
  16   1.0000      -0.782124       -21.2827
  17   1.0000      -0.622360       -16.9353
  18   1.0000      -0.440746       -11.9933
  19   1.0000      -0.398492       -10.8435
  20   1.0000      -0.365233        -9.9385
  21   1.0000      -0.316417        -8.6102
  22   1.0000      -0.313292        -8.5251
  23   1.0000      -0.304645        -8.2898
  24   1.0000      -0.216675        -5.8960
  25   0.0000      -0.123781        -3.3682
  26   0.0000      -0.111426        -3.0321
  27   0.0000      -0.013100        -0.3565
  28   0.0000       0.010938         0.2976
  29   0.0000       0.011602         0.3157

MULLIKEN ATOMIC CHARGES AND SPIN POPULATIONS
--------------------------------------------
   0 S :    0.045790    0.000000
   1 Cl:   -0.022894    0.000000
   2 Cl:   -0.022896   -0.000000
Sum of atomic charges         :   -0.0000000

LOEWDIN ATOMIC CHARGES AND SPIN POPULATIONS
-------------------------------------------
   0 S :   -0.123140    0.000000
   1 Cl:    0.061570    0.000000
   2 Cl:    0.061570   -0.000000

  Mayer bond orders larger than 0.1
B(  0-S ,  1-Cl) :   1.2215 B(  0-S ,  2-Cl) :   1.2215 B(  1-Cl,  2-Cl) :   0.1399

FINAL SINGLE POINT ENERGY     -1318.130315468740

DIPOLE MOMENT
-------------
                                X             Y             Z
Electronic contribution:     -0.00000      -0.00000      -0.90725
Nuclear contribution   :      0.00000       0.00000       1.02517
                        -----------------------------------------
Total Dipole Moment    :     -0.00000      -0.00000       0.11792
                        -----------------------------------------
Magnitude (a.u.)       :      0.11792
Magnitude (Debye)      :      0.29974

Rotational constants in cm-1:     0.483637     0.095963     0.080075
Rotational constants in MHz : 14499.063618  2876.902619  2400.579831

                             ****ORCA TERMINATED NORMALLY****
TOTAL RUN TIME: 0 days 1 hours 0 minutes 26 seconds 680 msec
