                         Program Version 4.1.2  - RELEASE  -
|  1> !uks pbe nori aug-pc-4 grid5 nofinalgrid verytightscf
|  2>
|  3> %maxcore 1500
|  4>
|  5> %pal nprocs 4 end
|  6>
|  7> %scf
|  8> 	maxiter 200
|  9> end
| 10> %elprop
| 11> 	dipole true
| 12> 	 polar 1
| 13> 	 maxiter 200
| 14> end
| 15>
| 16> * xyz 0 2
| 17> S 0.0000 0.0000 0.0000
| 18> Cl 0.0000 0.0000 1.9753
| 19> *
| 20>
| 21>                          ****END OF INPUT****

CARTESIAN COORDINATES (ANGSTROEM)
---------------------------------
  S      0.000000    0.000000    0.000000
  Cl     0.000000    0.000000    1.975300

 Total Charge           Charge          ....    0
 Multiplicity           Mult            ....    2
 Number of Electrons    NEL             ....   33
 Basis Dimension        Dim             ....  282

ORBITAL ENERGIES
----------------
                 SPIN UP ORBITALS
  NO   OCC          E(Eh)            E(eV)
   0   1.0000    -100.705312     -2740.3308
   1   1.0000     -88.094834     -2397.1823
   2   1.0000      -9.226840      -251.0751
   3   1.0000      -7.728604      -210.3060
   4   1.0000      -7.049155      -191.8173
   5   1.0000      -7.042993      -191.6496
   6   1.0000      -7.037532      -191.5010
   7   1.0000      -5.751893      -156.5170
   8   1.0000      -5.751527      -156.5070
   9   1.0000      -5.735949      -156.0831
  10   1.0000      -0.831092       -22.6152
  11   1.0000      -0.627700       -17.0806
  12   1.0000      -0.404360       -11.0032
  13   1.0000      -0.369997       -10.0681
  14   1.0000      -0.350450        -9.5362
  15   1.0000      -0.255276        -6.9464
  16   1.0000      -0.221776        -6.0348
  17   0.0000      -0.106042        -2.8856
  18   0.0000      -0.012472        -0.3394
  19   0.0000       0.014825         0.4034
  20   0.0000       0.016836         0.4581
  21   0.0000       0.017465         0.4752

                 SPIN DOWN ORBITALS
  NO   OCC          E(Eh)            E(eV)
   0   1.0000    -100.704059     -2740.2968
   1   1.0000     -88.090893     -2397.0751
   2   1.0000      -9.225642      -251.0425
   3   1.0000      -7.724593      -210.1969
   4   1.0000      -7.048559      -191.8010
   5   1.0000      -7.039307      -191.5493
   6   1.0000      -7.036787      -191.4807
   7   1.0000      -5.749059      -156.4398
   8   1.0000      -5.740291      -156.2013
   9   1.0000      -5.733563      -156.0182
  10   1.0000      -0.822796       -22.3894
  11   1.0000      -0.603361       -16.4183
  12   1.0000      -0.393930       -10.7194
  13   1.0000      -0.347460        -9.4549
  14   1.0000      -0.346882        -9.4391
  15   1.0000      -0.212798        -5.7905
  16   0.0000      -0.203567        -5.5393
  17   0.0000      -0.095656        -2.6029
  18   0.0000      -0.008573        -0.2333
  19   0.0000       0.017954         0.4885
  20   0.0000       0.019478         0.5300

MULLIKEN ATOMIC CHARGES AND SPIN POPULATIONS
--------------------------------------------
   0 S :   -0.107541    0.795879
   1 Cl:    0.107541    0.204121
Sum of atomic charges         :    0.0000000

LOEWDIN ATOMIC CHARGES AND SPIN POPULATIONS
-------------------------------------------
   0 S :    0.140207    0.659941
   1 Cl:   -0.140207    0.340059

  Mayer bond orders larger than 0.1
B(  0-S ,  1-Cl) :   1.4705

FINAL SINGLE POINT ENERGY      -858.050698951059

DIPOLE MOMENT
-------------
                                X             Y             Z
Electronic contribution:      0.00000      -0.00000       1.29957
Nuclear contribution   :      0.00000       0.00000      -1.22898
                        -----------------------------------------
Total Dipole Moment    :      0.00000      -0.00000       0.07059
                        -----------------------------------------
Magnitude (a.u.)       :      0.07059
Magnitude (Debye)      :      0.17944

Rotational constants in cm-1:     0.000000     0.256627     0.256627
Rotational constants in MHz :     0.000000  7693.471946  7693.471946

                             ****ORCA TERMINATED NORMALLY****
TOTAL RUN TIME: 0 days 0 hours 17 minutes 1 seconds 274 msec
