                         Program Version 4.1.2  - RELEASE  -
|  1> !uks pbe nori aug-pc-4 grid5 nofinalgrid verytightscf
|  2>
|  3> %maxcore 1500
|  4>
|  5> %pal nprocs 4 end
|  6>
|  7> %scf
|  8> 	maxiter 200
|  9> end
| 10> %elprop
| 11> 	dipole true
| 12> 	 polar 1
| 13> 	 maxiter 200
| 14> end
| 15>
| 16> * xyz 0 2
| 17> S 0.0000 0.0000 0.0000
| 18> H 0.0000 0.0000 1.3409
| 19> *
| 20>
| 21>                          ****END OF INPUT****

CARTESIAN COORDINATES (ANGSTROEM)
---------------------------------
  S      0.000000    0.000000    0.000000
  H      0.000000    0.000000    1.340900

 Total Charge           Charge          ....    0
 Multiplicity           Mult            ....    2
 Number of Electrons    NEL             ....   17
 Basis Dimension        Dim             ....  229

ORBITAL ENERGIES
----------------
                 SPIN UP ORBITALS
  NO   OCC          E(Eh)            E(eV)
   0   1.0000     -88.067888     -2396.4491
   1   1.0000      -7.705094      -209.6663
   2   1.0000      -5.732118      -155.9789
   3   1.0000      -5.722536      -155.7181
   4   1.0000      -5.713621      -155.4755
   5   1.0000      -0.673433       -18.3250
   6   1.0000      -0.375157       -10.2085
   7   1.0000      -0.288566        -7.8523
   8   1.0000      -0.241660        -6.5759
   9   0.0000      -0.032695        -0.8897
  10   0.0000       0.007307         0.1988
  11   0.0000       0.017183         0.4676
  12   0.0000       0.017487         0.4758
  13   0.0000       0.020605         0.5607

                 SPIN DOWN ORBITALS
  NO   OCC          E(Eh)            E(eV)
   0   1.0000     -88.063317     -2396.3247
   1   1.0000      -7.700324      -209.5365
   2   1.0000      -5.719615      -155.6386
   3   1.0000      -5.718481      -155.6078
   4   1.0000      -5.710792      -155.3986
   5   1.0000      -0.640628       -17.4324
   6   1.0000      -0.362745        -9.8708
   7   1.0000      -0.228912        -6.2290
   8   0.0000      -0.212538        -5.7835
   9   0.0000      -0.025764        -0.7011
  10   0.0000       0.015806         0.4301
  11   0.0000       0.019180         0.5219
  12   0.0000       0.021298         0.5795

MULLIKEN ATOMIC CHARGES AND SPIN POPULATIONS
--------------------------------------------
   0 S :   -0.046247    1.036556
   1 H :    0.046247   -0.036556
Sum of atomic charges         :    0.0000000

LOEWDIN ATOMIC CHARGES AND SPIN POPULATIONS
-------------------------------------------
   0 S :    1.201806    0.781594
   1 H :   -1.201806    0.218406

  Mayer bond orders larger than 0.1
B(  0-S ,  1-H ) :   1.0954

FINAL SINGLE POINT ENERGY      -398.592919932291

DIPOLE MOMENT
-------------
                                X             Y             Z
Electronic contribution:      0.00000       0.00000      -0.92775
Nuclear contribution   :      0.00000       0.00000       1.22084
                        -----------------------------------------
Total Dipole Moment    :      0.00000       0.00000       0.29308
                        -----------------------------------------
Magnitude (a.u.)       :      0.29308
Magnitude (Debye)      :      0.74496

Rotational constants in cm-1:     0.000000     9.593741     9.593741
Rotational constants in MHz :     0.000000 287613.125246 287613.125246

                             ****ORCA TERMINATED NORMALLY****
TOTAL RUN TIME: 0 days 0 hours 4 minutes 1 seconds 637 msec
