                         Program Version 4.1.2  - RELEASE  -
|  1> !uks pbe nori aug-pc-4 grid5 nofinalgrid verytightscf
|  2>
|  3> %maxcore 1500
|  4>
|  5> %pal nprocs 4 end
|  6>
|  7> %scf
|  8> 	maxiter 200
|  9> end
| 10> %elprop
| 11> 	dipole true
| 12> 	 polar 1
| 13> 	 maxiter 200
| 14> end
| 15>
| 16> * xyz 0 1
| 17> Si 0.0000 0.0000 0.4986
| 18> F 0.0000 0.0000 -1.0959
| 19> H 0.0000 1.4017 0.9613
| 20> H -1.2139 -0.7008 0.9613
| 21> H 1.2139 -0.7008 0.9613
| 22> *
| 23>
| 24>                          ****END OF INPUT****

CARTESIAN COORDINATES (ANGSTROEM)
---------------------------------
  Si     0.000000    0.000000    0.498600
  F      0.000000    0.000000   -1.095900
  H      0.000000    1.401700    0.961300
  H     -1.213900   -0.700800    0.961300
  H      1.213900   -0.700800    0.961300

 Total Charge           Charge          ....    0
 Multiplicity           Mult            ....    1
 Number of Electrons    NEL             ....   26
 Basis Dimension        Dim             ....  550

ORBITAL ENERGIES
----------------
                 SPIN UP ORBITALS
  NO   OCC          E(Eh)            E(eV)
   0   1.0000     -65.414418     -1780.0168
   1   1.0000     -24.250760      -659.8967
   2   1.0000      -5.078234      -138.1858
   3   1.0000      -3.489692       -94.9594
   4   1.0000      -3.486315       -94.8675
   5   1.0000      -3.486315       -94.8674
   6   1.0000      -1.090773       -29.6814
   7   1.0000      -0.510141       -13.8817
   8   1.0000      -0.406954       -11.0738
   9   1.0000      -0.395032       -10.7494
  10   1.0000      -0.395030       -10.7493
  11   1.0000      -0.306631        -8.3438
  12   1.0000      -0.306624        -8.3437
  13   0.0000      -0.044955        -1.2233
  14   0.0000      -0.014032        -0.3818
  15   0.0000       0.006103         0.1661
  16   0.0000       0.006106         0.1662
  17   0.0000       0.014413         0.3922

                 SPIN DOWN ORBITALS
  NO   OCC          E(Eh)            E(eV)
   0   1.0000     -65.414418     -1780.0168
   1   1.0000     -24.250760      -659.8967
   2   1.0000      -5.078234      -138.1858
   3   1.0000      -3.489692       -94.9594
   4   1.0000      -3.486315       -94.8675
   5   1.0000      -3.486315       -94.8674
   6   1.0000      -1.090773       -29.6814
   7   1.0000      -0.510141       -13.8817
   8   1.0000      -0.406954       -11.0738
   9   1.0000      -0.395032       -10.7494
  10   1.0000      -0.395030       -10.7493
  11   1.0000      -0.306631        -8.3438
  12   1.0000      -0.306624        -8.3437
  13   0.0000      -0.044955        -1.2233
  14   0.0000      -0.014032        -0.3818
  15   0.0000       0.006103         0.1661
  16   0.0000       0.006106         0.1662
  17   0.0000       0.014413         0.3922

MULLIKEN ATOMIC CHARGES AND SPIN POPULATIONS
--------------------------------------------
   0 Si:    0.892598    0.000000
   1 F :   -0.361927    0.000000
   2 H :   -0.177065   -0.000000
   3 H :   -0.176796   -0.000000
   4 H :   -0.176810    0.000000
Sum of atomic charges         :    0.0000000

LOEWDIN ATOMIC CHARGES AND SPIN POPULATIONS
-------------------------------------------
   0 Si:    1.477540    0.000000
   1 F :   -0.060480   -0.000000
   2 H :   -0.472341    0.000000
   3 H :   -0.472359    0.000000
   4 H :   -0.472359   -0.000000

  Mayer bond orders larger than 0.1
B(  0-Si,  1-F ) :   1.1933 B(  0-Si,  2-H ) :   0.9060 B(  0-Si,  3-H ) :   0.9061
B(  0-Si,  4-H ) :   0.9061

FINAL SINGLE POINT ENERGY      -391.005867905694

DIPOLE MOMENT
-------------
                                X             Y             Z
Electronic contribution:     -0.00000      -0.00014      -3.37342
Nuclear contribution   :      0.00000       0.00009       3.83545
                        -----------------------------------------
Total Dipole Moment    :     -0.00000      -0.00005       0.46203
                        -----------------------------------------
Magnitude (a.u.)       :      0.46203
Magnitude (Debye)      :      1.17438

Rotational constants in cm-1:     2.837384     0.478111     0.478110
Rotational constants in MHz : 85062.627148 14333.413377 14333.371477

                             ****ORCA TERMINATED NORMALLY****
TOTAL RUN TIME: 0 days 1 hours 12 minutes 49 seconds 123 msec
