                         Program Version 4.1.2  - RELEASE  -
|  1> !uks pbe nori aug-pc-4 grid5 nofinalgrid verytightscf
|  2>
|  3> %maxcore 1500
|  4>
|  5> %pal nprocs 4 end
|  6>
|  7> %scf
|  8> 	maxiter 200
|  9> end
| 10> %elprop
| 11> 	dipole true
| 12> 	 polar 1
| 13> 	 maxiter 200
| 14> end
| 15>
| 16> * xyz 0 2
| 17> Si 0.0000 0.0000 0.0819
| 18> H 0.0000 1.3928 -0.3820
| 19> H 1.2062 -0.6964 -0.3820
| 20> H -1.2062 -0.6964 -0.3820
| 21> *
| 22>
| 23>                          ****END OF INPUT****

CARTESIAN COORDINATES (ANGSTROEM)
---------------------------------
  Si     0.000000    0.000000    0.081900
  H      0.000000    1.392800   -0.382000
  H      1.206200   -0.696400   -0.382000
  H     -1.206200   -0.696400   -0.382000

 Total Charge           Charge          ....    0
 Multiplicity           Mult            ....    2
 Number of Electrons    NEL             ....   17
 Basis Dimension        Dim             ....  405

ORBITAL ENERGIES
----------------
                 SPIN UP ORBITALS
  NO   OCC          E(Eh)            E(eV)
   0   1.0000     -65.389592     -1779.3413
   1   1.0000      -5.057040      -137.6091
   2   1.0000      -3.470197       -94.4289
   3   1.0000      -3.464480       -94.2733
   4   1.0000      -3.464480       -94.2733
   5   1.0000      -0.491851       -13.3840
   6   1.0000      -0.322231        -8.7683
   7   1.0000      -0.322231        -8.7683
   8   1.0000      -0.197352        -5.3702
   9   0.0000      -0.019851        -0.5402
  10   0.0000      -0.005855        -0.1593
  11   0.0000      -0.005855        -0.1593
  12   0.0000       0.009047         0.2462
  13   0.0000       0.011719         0.3189

                 SPIN DOWN ORBITALS
  NO   OCC          E(Eh)            E(eV)
   0   1.0000     -65.386786     -1779.2649
   1   1.0000      -5.053453      -137.5115
   2   1.0000      -3.462104       -94.2086
   3   1.0000      -3.462104       -94.2086
   4   1.0000      -3.461773       -94.1996
   5   1.0000      -0.474249       -12.9050
   6   1.0000      -0.315989        -8.5985
   7   1.0000      -0.315989        -8.5985
   8   0.0000      -0.129894        -3.5346
   9   0.0000      -0.011553        -0.3144
  10   0.0000       0.006067         0.1651
  11   0.0000       0.006068         0.1651
  12   0.0000       0.016567         0.4508

MULLIKEN ATOMIC CHARGES AND SPIN POPULATIONS
--------------------------------------------
   0 Si:   -0.010493    1.077788
   1 H :    0.003365   -0.025891
   2 H :    0.003564   -0.025949
   3 H :    0.003564   -0.025947
Sum of atomic charges         :    0.0000000

LOEWDIN ATOMIC CHARGES AND SPIN POPULATIONS
-------------------------------------------
   0 Si:    1.683158    0.491612
   1 H :   -0.561053    0.169463
   2 H :   -0.561053    0.169463
   3 H :   -0.561053    0.169463

  Mayer bond orders larger than 0.1
B(  0-Si,  1-H ) :   0.9424 B(  0-Si,  2-H ) :   0.9425 B(  0-Si,  3-H ) :   0.9425

FINAL SINGLE POINT ENERGY      -291.088042482721

DIPOLE MOMENT
-------------
                                X             Y             Z
Electronic contribution:      0.00000       0.00000       1.19595
Nuclear contribution   :      0.00000       0.00000      -1.18131
                        -----------------------------------------
Total Dipole Moment    :      0.00000       0.00000       0.01464
                        -----------------------------------------
Magnitude (a.u.)       :      0.01464
Magnitude (Debye)      :      0.03721

Rotational constants in cm-1:     4.788243     4.788242     2.873675
Rotational constants in MHz : 143547.920390 143547.884222 86150.611924

                             ****ORCA TERMINATED NORMALLY****
TOTAL RUN TIME: 0 days 0 hours 22 minutes 43 seconds 396 msec
