                         Program Version 4.1.2  - RELEASE  -
|  1> !uks pbe nori aug-pc-4 grid5 nofinalgrid verytightscf
|  2>
|  3> %maxcore 1500
|  4>
|  5> %pal nprocs 4 end
|  6>
|  7> %scf
|  8> 	maxiter 200
|  9> end
| 10> %elprop
| 11> 	dipole true
| 12> 	 polar 1
| 13> 	 maxiter 200
| 14> end
| 15>
| 16> * xyz 0 1
| 17> Si 0.0000 0.0000 -0.9844
| 18> Cl 0.0000 0.0000 1.0661
| 19> H 0.0000 1.4004 -1.4474
| 20> H 1.2128 -0.7002 -1.4474
| 21> H -1.2128 -0.7002 -1.4474
| 22> *
| 23>
| 24>                          ****END OF INPUT****

CARTESIAN COORDINATES (ANGSTROEM)
---------------------------------
  Si     0.000000    0.000000   -0.984400
  Cl     0.000000    0.000000    1.066100
  H      0.000000    1.400400   -1.447400
  H      1.212800   -0.700200   -1.447400
  H     -1.212800   -0.700200   -1.447400

 Total Charge           Charge          ....    0
 Multiplicity           Mult            ....    1
 Number of Electrons    NEL             ....   34
 Basis Dimension        Dim             ....  546

ORBITAL ENERGIES
----------------
                 SPIN UP ORBITALS
  NO   OCC          E(Eh)            E(eV)
   0   1.0000    -100.649273     -2738.8060
   1   1.0000     -65.416621     -1780.0768
   2   1.0000      -9.174883      -249.6613
   3   1.0000      -6.994615      -190.3331
   4   1.0000      -6.988637      -190.1705
   5   1.0000      -6.988637      -190.1705
   6   1.0000      -5.081160      -138.2654
   7   1.0000      -3.492715       -95.0416
   8   1.0000      -3.489017       -94.9410
   9   1.0000      -3.489017       -94.9410
  10   1.0000      -0.759069       -20.6553
  11   1.0000      -0.500295       -13.6137
  12   1.0000      -0.357716        -9.7340
  13   1.0000      -0.345907        -9.4126
  14   1.0000      -0.345907        -9.4126
  15   1.0000      -0.282920        -7.6986
  16   1.0000      -0.282920        -7.6986
  17   0.0000      -0.044169        -1.2019
  18   0.0000      -0.020748        -0.5646
  19   0.0000      -0.000715        -0.0195
  20   0.0000      -0.000714        -0.0194
  21   0.0000       0.008926         0.2429

                 SPIN DOWN ORBITALS
  NO   OCC          E(Eh)            E(eV)
   0   1.0000    -100.649273     -2738.8060
   1   1.0000     -65.416621     -1780.0768
   2   1.0000      -9.174883      -249.6613
   3   1.0000      -6.994615      -190.3331
   4   1.0000      -6.988637      -190.1705
   5   1.0000      -6.988637      -190.1705
   6   1.0000      -5.081160      -138.2654
   7   1.0000      -3.492715       -95.0416
   8   1.0000      -3.489017       -94.9410
   9   1.0000      -3.489017       -94.9410
  10   1.0000      -0.759069       -20.6553
  11   1.0000      -0.500295       -13.6137
  12   1.0000      -0.357716        -9.7340
  13   1.0000      -0.345907        -9.4126
  14   1.0000      -0.345907        -9.4126
  15   1.0000      -0.282920        -7.6986
  16   1.0000      -0.282920        -7.6986
  17   0.0000      -0.044169        -1.2019
  18   0.0000      -0.020748        -0.5646
  19   0.0000      -0.000715        -0.0195
  20   0.0000      -0.000714        -0.0194
  21   0.0000       0.008926         0.2429

MULLIKEN ATOMIC CHARGES AND SPIN POPULATIONS
--------------------------------------------
   0 Si:    0.463096    0.000000
   1 Cl:   -0.231943    0.000000
   2 H :   -0.077234   -0.000000
   3 H :   -0.076964   -0.000000
   4 H :   -0.076956   -0.000000
Sum of atomic charges         :   -0.0000000

LOEWDIN ATOMIC CHARGES AND SPIN POPULATIONS
-------------------------------------------
   0 Si:    1.247456   -0.000000
   1 Cl:    0.726874    0.000000
   2 H :   -0.658118    0.000000
   3 H :   -0.658106   -0.000000
   4 H :   -0.658106   -0.000000

  Mayer bond orders larger than 0.1
B(  0-Si,  1-Cl) :   1.0445 B(  0-Si,  2-H ) :   0.9428 B(  0-Si,  3-H ) :   0.9430
B(  0-Si,  4-H ) :   0.9430

FINAL SINGLE POINT ENERGY      -751.236419188640

DIPOLE MOMENT
-------------
                                X             Y             Z
Electronic contribution:     -0.00000       0.00000       5.09514
Nuclear contribution   :      0.00000       0.00000      -5.57134
                        -----------------------------------------
Total Dipole Moment    :     -0.00000       0.00000      -0.47620
                        -----------------------------------------
Magnitude (a.u.)       :      0.47620
Magnitude (Debye)      :      1.21039

Rotational constants in cm-1:     2.842526     0.220906     0.220906
Rotational constants in MHz : 85216.787546  6622.605522  6622.597873

                             ****ORCA TERMINATED NORMALLY****
TOTAL RUN TIME: 0 days 1 hours 17 minutes 27 seconds 927 msec
