                         Program Version 4.1.2  - RELEASE  -
|  1> !uks pbe nori aug-pc-4 grid5 nofinalgrid verytightscf
|  2>
|  3> %maxcore 1500
|  4>
|  5> %pal nprocs 4 end
|  6>
|  7> %scf
|  8> 	maxiter 200
|  9> end
| 10> %elprop
| 11> 	dipole true
| 12> 	 polar 1
| 13> 	 maxiter 200
| 14> end
| 15>
| 16> * xyz 0 1
| 17> Si 0.0000 0.0000 0.0000
| 18> H 0.8544 0.8544 0.8544
| 19> H -0.8544 -0.8544 0.8544
| 20> H -0.8544 0.8544 -0.8544
| 21> H 0.8544 -0.8544 -0.8544
| 22> *
| 23>
| 24>                          ****END OF INPUT****

CARTESIAN COORDINATES (ANGSTROEM)
---------------------------------
  Si     0.000000    0.000000    0.000000
  H      0.854400    0.854400    0.854400
  H     -0.854400   -0.854400    0.854400
  H     -0.854400    0.854400   -0.854400
  H      0.854400   -0.854400   -0.854400

 Total Charge           Charge          ....    0
 Multiplicity           Mult            ....    1
 Number of Electrons    NEL             ....   18
 Basis Dimension        Dim             ....  493

ORBITAL ENERGIES
----------------
                 SPIN UP ORBITALS
  NO   OCC          E(Eh)            E(eV)
   0   1.0000     -65.375476     -1778.9571
   1   1.0000      -5.044505      -137.2680
   2   1.0000      -3.453303       -93.9691
   3   1.0000      -3.453303       -93.9691
   4   1.0000      -3.453303       -93.9691
   5   1.0000      -0.494797       -13.4641
   6   1.0000      -0.313207        -8.5228
   7   1.0000      -0.313207        -8.5228
   8   1.0000      -0.313207        -8.5228
   9   0.0000      -0.017721        -0.4822
  10   0.0000      -0.002377        -0.0647
  11   0.0000      -0.002377        -0.0647
  12   0.0000      -0.002377        -0.0647
  13   0.0000       0.013895         0.3781

                 SPIN DOWN ORBITALS
  NO   OCC          E(Eh)            E(eV)
   0   1.0000     -65.375476     -1778.9571
   1   1.0000      -5.044505      -137.2680
   2   1.0000      -3.453303       -93.9691
   3   1.0000      -3.453303       -93.9691
   4   1.0000      -3.453303       -93.9691
   5   1.0000      -0.494797       -13.4641
   6   1.0000      -0.313207        -8.5228
   7   1.0000      -0.313207        -8.5228
   8   1.0000      -0.313207        -8.5228
   9   0.0000      -0.017721        -0.4822
  10   0.0000      -0.002377        -0.0647
  11   0.0000      -0.002377        -0.0647
  12   0.0000      -0.002377        -0.0647
  13   0.0000       0.013895         0.3781

MULLIKEN ATOMIC CHARGES AND SPIN POPULATIONS
--------------------------------------------
   0 Si:    0.097076    0.000000
   1 H :   -0.024280   -0.000000
   2 H :   -0.024267   -0.000000
   3 H :   -0.024258   -0.000000
   4 H :   -0.024270   -0.000000
Sum of atomic charges         :    0.0000000

LOEWDIN ATOMIC CHARGES AND SPIN POPULATIONS
-------------------------------------------
   0 Si:    1.820058    0.000000
   1 H :   -0.455014    0.000000
   2 H :   -0.455014   -0.000000
   3 H :   -0.455014   -0.000000
   4 H :   -0.455014    0.000000

  Mayer bond orders larger than 0.1
B(  0-Si,  1-H ) :   0.9399 B(  0-Si,  2-H ) :   0.9399 B(  0-Si,  3-H ) :   0.9399
B(  0-Si,  4-H ) :   0.9399

FINAL SINGLE POINT ENERGY      -291.733760037736

DIPOLE MOMENT
-------------
                                X             Y             Z
Electronic contribution:     -0.00000       0.00000      -0.00000
Nuclear contribution   :      0.00000       0.00000       0.00000
                        -----------------------------------------
Total Dipole Moment    :     -0.00000       0.00000      -0.00000
                        -----------------------------------------
Magnitude (a.u.)       :      0.00000
Magnitude (Debye)      :      0.00000

Rotational constants in cm-1:     2.863676     2.863676     2.863676
Rotational constants in MHz : 85850.851198 85850.851198 85850.851198

                             ****ORCA TERMINATED NORMALLY****
TOTAL RUN TIME: 0 days 0 hours 41 minutes 32 seconds 688 msec
