                         Program Version 4.1.2  - RELEASE  -
|  1> !uks pbe nori aug-pc-4 grid5 nofinalgrid verytightscf
|  2>
|  3> %maxcore 1500
|  4>
|  5> %pal nprocs 4 end
|  6>
|  7> %scf
|  8> 	maxiter 200
|  9> end
| 10> %elprop
| 11> 	dipole true
| 12> 	 polar 1
| 13> 	 maxiter 200
| 14> end
| 15>
| 16> * xyz 0 1
| 17> Si 0.0000 0.0000 0.0000
| 18> O 0.0000 0.0000 1.5097
| 19> *
| 20>
| 21>                          ****END OF INPUT****

CARTESIAN COORDINATES (ANGSTROEM)
---------------------------------
  Si     0.000000    0.000000    0.000000
  O      0.000000    0.000000    1.509700

 Total Charge           Charge          ....    0
 Multiplicity           Mult            ....    1
 Number of Electrons    NEL             ....   22
 Basis Dimension        Dim             ....  286

ORBITAL ENERGIES
----------------
                 SPIN UP ORBITALS
  NO   OCC          E(Eh)            E(eV)
   0   1.0000     -65.419313     -1780.1500
   1   1.0000     -18.740690      -509.9601
   2   1.0000      -5.083279      -138.3230
   3   1.0000      -3.495477       -95.1168
   4   1.0000      -3.495477       -95.1168
   5   1.0000      -3.487237       -94.8925
   6   1.0000      -0.860972       -23.4282
   7   1.0000      -0.392864       -10.6904
   8   1.0000      -0.298315        -8.1176
   9   1.0000      -0.298315        -8.1176
  10   1.0000      -0.274337        -7.4651
  11   0.0000      -0.105618        -2.8740
  12   0.0000      -0.105618        -2.8740
  13   0.0000      -0.017128        -0.4661
  14   0.0000      -0.003244        -0.0883
  15   0.0000       0.015469         0.4209

                 SPIN DOWN ORBITALS
  NO   OCC          E(Eh)            E(eV)
   0   1.0000     -65.419313     -1780.1500
   1   1.0000     -18.740690      -509.9601
   2   1.0000      -5.083279      -138.3230
   3   1.0000      -3.495477       -95.1168
   4   1.0000      -3.495477       -95.1168
   5   1.0000      -3.487237       -94.8925
   6   1.0000      -0.860972       -23.4282
   7   1.0000      -0.392864       -10.6904
   8   1.0000      -0.298315        -8.1176
   9   1.0000      -0.298315        -8.1176
  10   1.0000      -0.274337        -7.4651
  11   0.0000      -0.105618        -2.8740
  12   0.0000      -0.105618        -2.8740
  13   0.0000      -0.017128        -0.4661
  14   0.0000      -0.003244        -0.0883
  15   0.0000       0.015469         0.4209

MULLIKEN ATOMIC CHARGES AND SPIN POPULATIONS
--------------------------------------------
   0 Si:    0.524874   -0.000000
   1 O :   -0.524874    0.000000
Sum of atomic charges         :   -0.0000000

LOEWDIN ATOMIC CHARGES AND SPIN POPULATIONS
-------------------------------------------
   0 Si:    0.648636   -0.000000
   1 O :   -0.648636    0.000000

  Mayer bond orders larger than 0.1
B(  0-Si,  1-O ) :   2.6817

FINAL SINGLE POINT ENERGY      -364.562486009179

DIPOLE MOMENT
-------------
                                X             Y             Z
Electronic contribution:     -0.00000      -0.00000      -1.18709
Nuclear contribution   :      0.00000       0.00000       0.04543
                        -----------------------------------------
Total Dipole Moment    :     -0.00000      -0.00000      -1.14166
                        -----------------------------------------
Magnitude (a.u.)       :      1.14166
Magnitude (Debye)      :      2.90187

Rotational constants in cm-1:     0.000000     0.725644     0.725644
Rotational constants in MHz :     0.000000 21754.264723 21754.264723

                             ****ORCA TERMINATED NORMALLY****
TOTAL RUN TIME: 0 days 0 hours 12 minutes 41 seconds 343 msec
