                         Program Version 4.1.2  - RELEASE  -
|  1> !uks pbe nori aug-pc-4 grid5 nofinalgrid verytightscf
|  2>
|  3> %maxcore 1500
|  4>
|  5> %pal nprocs 4 end
|  6>
|  7> %scf
|  8> 	maxiter 200
|  9> end
| 10> %elprop
| 11> 	dipole true
| 12> 	 polar 1
| 13> 	 maxiter 200
| 14> end
| 15>
| 16> * xyz 0 3
| 17> S 0.0000 0.0000 0.0000
| 18> O 0.0000 0.0000 1.4811
| 19> *
| 20>
| 21>                          ****END OF INPUT****

CARTESIAN COORDINATES (ANGSTROEM)
---------------------------------
  S      0.000000    0.000000    0.000000
  O      0.000000    0.000000    1.481100

 Total Charge           Charge          ....    0
 Multiplicity           Mult            ....    3
 Number of Electrons    NEL             ....   24
 Basis Dimension        Dim             ....  286

ORBITAL ENERGIES
----------------
                 SPIN UP ORBITALS
  NO   OCC          E(Eh)            E(eV)
   0   1.0000     -88.124737     -2397.9960
   1   1.0000     -18.823742      -512.2201
   2   1.0000      -7.757429      -211.0904
   3   1.0000      -5.775857      -157.1690
   4   1.0000      -5.775857      -157.1690
   5   1.0000      -5.775621      -157.1626
   6   1.0000      -1.004817       -27.3425
   7   1.0000      -0.619769       -16.8648
   8   1.0000      -0.411547       -11.1988
   9   1.0000      -0.406782       -11.0691
  10   1.0000      -0.406782       -11.0691
  11   1.0000      -0.224779        -6.1166
  12   1.0000      -0.224779        -6.1166
  13   0.0000      -0.047677        -1.2974
  14   0.0000      -0.012299        -0.3347
  15   0.0000       0.014707         0.4002
  16   0.0000       0.014707         0.4002
  17   0.0000       0.031708         0.8628

                 SPIN DOWN ORBITALS
  NO   OCC          E(Eh)            E(eV)
   0   1.0000     -88.118805     -2397.8346
   1   1.0000     -18.805422      -511.7215
   2   1.0000      -7.751396      -210.9262
   3   1.0000      -5.772199      -157.0695
   4   1.0000      -5.765182      -156.8786
   5   1.0000      -5.765182      -156.8786
   6   1.0000      -0.974981       -26.5306
   7   1.0000      -0.570399       -15.5214
   8   1.0000      -0.385238       -10.4829
   9   1.0000      -0.363004        -9.8779
  10   1.0000      -0.363004        -9.8779
  11   0.0000      -0.162217        -4.4142
  12   0.0000      -0.162217        -4.4142
  13   0.0000      -0.029822        -0.8115
  14   0.0000       0.001559         0.0424
  15   0.0000       0.023492         0.6392

MULLIKEN ATOMIC CHARGES AND SPIN POPULATIONS
--------------------------------------------
   0 S :    0.076939    1.284855
   1 O :   -0.076939    0.715145
Sum of atomic charges         :    0.0000000

LOEWDIN ATOMIC CHARGES AND SPIN POPULATIONS
-------------------------------------------
   0 S :    0.876829    1.082707
   1 O :   -0.876829    0.917293

  Mayer bond orders larger than 0.1
B(  0-S ,  1-O ) :   2.0002

FINAL SINGLE POINT ENERGY      -473.193121476667

DIPOLE MOMENT
-------------
                                X             Y             Z
Electronic contribution:     -0.00000       0.00000      -0.56319
Nuclear contribution   :      0.00000       0.00000       0.02889
                        -----------------------------------------
Total Dipole Moment    :     -0.00000       0.00000      -0.53431
                        -----------------------------------------
Magnitude (a.u.)       :      0.53431
Magnitude (Debye)      :      1.35810

Rotational constants in cm-1:     0.000000     0.720023     0.720023
Rotational constants in MHz :     0.000000 21585.753511 21585.753511

                             ****ORCA TERMINATED NORMALLY****
TOTAL RUN TIME: 0 days 0 hours 25 minutes 5 seconds 984 msec
