                         Program Version 4.1.2  - RELEASE  -
|  1> !uks pbe nori aug-pc-4 grid5 nofinalgrid verytightscf
|  2>
|  3> %maxcore 1500
|  4>
|  5> %pal nprocs 4 end
|  6>
|  7> %scf
|  8> 	maxiter 200
|  9> end
| 10> %elprop
| 11> 	dipole true
| 12> 	 polar 1
| 13> 	 maxiter 200
| 14> end
| 15>
| 16> * xyz 0 1
| 17> S 0.0000 0.0000 0.0000
| 18> O 0.0000 1.2371 0.7215
| 19> O 0.0000 -1.2371 0.7215
| 20> *
| 21>
| 22>                          ****END OF INPUT****

CARTESIAN COORDINATES (ANGSTROEM)
---------------------------------
  S      0.000000    0.000000    0.000000
  O      0.000000    1.237100    0.721500
  O      0.000000   -1.237100    0.721500

 Total Charge           Charge          ....    0
 Multiplicity           Mult            ....    1
 Number of Electrons    NEL             ....   32
 Basis Dimension        Dim             ....  431

ORBITAL ENERGIES
----------------
                 SPIN UP ORBITALS
  NO   OCC          E(Eh)            E(eV)
   0   1.0000     -88.197233     -2399.9687
   1   1.0000     -18.811270      -511.8807
   2   1.0000     -18.811270      -511.8807
   3   1.0000      -7.818207      -212.7442
   4   1.0000      -5.839833      -158.9099
   5   1.0000      -5.836530      -158.8201
   6   1.0000      -5.832936      -158.7223
   7   1.0000      -1.063433       -28.9375
   8   1.0000      -0.973909       -26.5014
   9   1.0000      -0.578521       -15.7424
  10   1.0000      -0.456047       -12.4097
  11   1.0000      -0.446128       -12.1398
  12   1.0000      -0.445689       -12.1278
  13   1.0000      -0.347783        -9.4637
  14   1.0000      -0.323182        -8.7942
  15   1.0000      -0.296636        -8.0719
  16   0.0000      -0.162070        -4.4101
  17   0.0000      -0.023716        -0.6453
  18   0.0000      -0.001502        -0.0409
  19   0.0000       0.002206         0.0600
  20   0.0000       0.013890         0.3780

                 SPIN DOWN ORBITALS
  NO   OCC          E(Eh)            E(eV)
   0   1.0000     -88.197233     -2399.9687
   1   1.0000     -18.811270      -511.8807
   2   1.0000     -18.811270      -511.8807
   3   1.0000      -7.818207      -212.7442
   4   1.0000      -5.839833      -158.9099
   5   1.0000      -5.836530      -158.8201
   6   1.0000      -5.832936      -158.7223
   7   1.0000      -1.063433       -28.9375
   8   1.0000      -0.973909       -26.5014
   9   1.0000      -0.578521       -15.7424
  10   1.0000      -0.456047       -12.4097
  11   1.0000      -0.446128       -12.1398
  12   1.0000      -0.445689       -12.1278
  13   1.0000      -0.347783        -9.4637
  14   1.0000      -0.323182        -8.7942
  15   1.0000      -0.296636        -8.0719
  16   0.0000      -0.162070        -4.4101
  17   0.0000      -0.023716        -0.6453
  18   0.0000      -0.001502        -0.0409
  19   0.0000       0.002206         0.0600
  20   0.0000       0.013890         0.3780

MULLIKEN ATOMIC CHARGES AND SPIN POPULATIONS
--------------------------------------------
   0 S :    0.215769    0.000000
   1 O :   -0.107883   -0.000000
   2 O :   -0.107886    0.000000
Sum of atomic charges         :    0.0000000

LOEWDIN ATOMIC CHARGES AND SPIN POPULATIONS
-------------------------------------------
   0 S :    0.985694    0.000000
   1 O :   -0.492847   -0.000000
   2 O :   -0.492847   -0.000000

  Mayer bond orders larger than 0.1
B(  0-S ,  1-O ) :   2.0018 B(  0-S ,  2-O ) :   2.0018 B(  1-O ,  2-O ) :   0.1969

FINAL SINGLE POINT ENERGY      -548.431370004861

DIPOLE MOMENT
-------------
                                X             Y             Z
Electronic contribution:      0.00000       0.00000      -0.60539
Nuclear contribution   :      0.00000       0.00000       0.02111
                        -----------------------------------------
Total Dipole Moment    :      0.00000       0.00000      -0.58428
                        -----------------------------------------
Magnitude (a.u.)       :      0.58428
Magnitude (Debye)      :      1.48511

Rotational constants in cm-1:     2.022140     0.344242     0.294165
Rotational constants in MHz : 60622.236728 10320.129716  8818.839547

                             ****ORCA TERMINATED NORMALLY****
TOTAL RUN TIME: 0 days 0 hours 45 minutes 1 seconds 842 msec
