                         Program Version 4.1.1  - RELEASE  -
|  1> ! uks pbe nori aug-pc-4 grid5 nofinalgrid verytightscf
|  2>
|  3> %maxcore 1500
|  4>
|  5> %pal nprocs 4 end
|  6> %scf
|  7>     efield 0.01, 0.0, 0.0
|  8>     maxiter 300
|  9> end
| 10> * xyz 0 3
| 11> B      0.0000  0.0000  0.0000
| 12> N      0.0000  0.0000  1.3250
| 13> *
| 14>
| 15>                          ****END OF INPUT****

CARTESIAN COORDINATES (ANGSTROEM)
---------------------------------
  B      0.000000    0.000000    0.000000
  N      0.000000    0.000000    1.325000

 Total Charge           Charge          ....    0
 Multiplicity           Mult            ....    3
 Number of Electrons    NEL             ....   12
 Basis Dimension        Dim             ....  290

ORBITAL ENERGIES
----------------
                 SPIN UP ORBITALS
  NO   OCC          E(Eh)            E(eV)
   0   1.0000     -14.043939      -382.1550
   1   1.0000      -6.605778      -179.7523
   2   1.0000      -0.773898       -21.0588
   3   1.0000      -0.364711        -9.9243
   4   1.0000      -0.335685        -9.1344
   5   1.0000      -0.291716        -7.9380
   6   1.0000      -0.283694        -7.7197
   7   0.0000      -0.083171        -2.2632
   8   0.0000      -0.064489        -1.7548
   9   0.0000      -0.048824        -1.3286
  10   0.0000      -0.019323        -0.5258
  11   0.0000      -0.007295        -0.1985

                 SPIN DOWN ORBITALS
  NO   OCC          E(Eh)            E(eV)
   0   1.0000     -14.027730      -381.7139
   1   1.0000      -6.590433      -179.3348
   2   1.0000      -0.722942       -19.6723
   3   1.0000      -0.318759        -8.6739
   4   1.0000      -0.273416        -7.4400
   5   0.0000      -0.248327        -6.7573
   6   0.0000      -0.190560        -5.1854
   7   0.0000      -0.052183        -1.4200
   8   0.0000      -0.024251        -0.6599
   9   0.0000      -0.015154        -0.4124

MULLIKEN ATOMIC CHARGES AND SPIN POPULATIONS
--------------------------------------------
   0 B :    0.039405    1.138710
   1 N :   -0.039405    0.861290
Sum of atomic charges         :   -0.0000000

LOEWDIN ATOMIC CHARGES AND SPIN POPULATIONS
-------------------------------------------
   0 B :   -0.013351    1.031572
   1 N :    0.013351    0.968428

  Mayer bond orders larger than 0.1
B(  0-B ,  1-N ) :   2.2877

FINAL SINGLE POINT ENERGY       -79.344887777032

DIPOLE MOMENT
-------------
                                X             Y             Z
Electronic contribution:      0.22926       0.00000      -1.30700
Nuclear contribution   :      0.00000       0.00000       0.56854
                        -----------------------------------------
Total Dipole Moment    :      0.22926       0.00000      -0.73847
                        -----------------------------------------
Magnitude (a.u.)       :      0.77324
Magnitude (Debye)      :      1.96541

Rotational constants in cm-1:     0.000000     1.573778     1.573778
Rotational constants in MHz :     0.000000 47180.691902 47180.691902

                             ****ORCA TERMINATED NORMALLY****
TOTAL RUN TIME: 0 days 0 hours 7 minutes 8 seconds 930 msec
