                         Program Version 4.1.1  - RELEASE  -
|  1> ! uks pbe nori aug-pc-4 grid5 nofinalgrid verytightscf
|  2>
|  3> %maxcore 1500
|  4>
|  5> %pal nprocs 4 end
|  6> %scf
|  7>     efield 0.0, 0.0, 0.01
|  8>     maxiter 300
|  9> end
| 10> * xyz 0 3
| 11> B      0.0000  0.0000  0.0000
| 12> N      0.0000  0.0000  1.3250
| 13> *
| 14>
| 15>                          ****END OF INPUT****

CARTESIAN COORDINATES (ANGSTROEM)
---------------------------------
  B      0.000000    0.000000    0.000000
  N      0.000000    0.000000    1.325000

 Total Charge           Charge          ....    0
 Multiplicity           Mult            ....    3
 Number of Electrons    NEL             ....   12
 Basis Dimension        Dim             ....  290

ORBITAL ENERGIES
----------------
                 SPIN UP ORBITALS
  NO   OCC          E(Eh)            E(eV)
   0   1.0000     -14.051940      -382.3727
   1   1.0000      -6.609141      -179.8439
   2   1.0000      -0.779210       -21.2034
   3   1.0000      -0.370379       -10.0785
   4   1.0000      -0.339420        -9.2361
   5   1.0000      -0.295220        -8.0333
   6   1.0000      -0.293234        -7.9793
   7   0.0000      -0.093862        -2.5541
   8   0.0000      -0.079554        -2.1648
   9   0.0000      -0.071443        -1.9441
  10   0.0000      -0.027790        -0.7562
  11   0.0000      -0.027697        -0.7537

                 SPIN DOWN ORBITALS
  NO   OCC          E(Eh)            E(eV)
   0   1.0000     -14.035138      -381.9155
   1   1.0000      -6.594801      -179.4536
   2   1.0000      -0.726984       -19.7822
   3   1.0000      -0.319980        -8.7071
   4   1.0000      -0.277266        -7.5448
   5   0.0000      -0.252455        -6.8696
   6   0.0000      -0.207060        -5.6344
   7   0.0000      -0.073251        -1.9932
   8   0.0000      -0.042506        -1.1566
   9   0.0000      -0.033162        -0.9024

MULLIKEN ATOMIC CHARGES AND SPIN POPULATIONS
--------------------------------------------
   0 B :   -0.015684    1.109392
   1 N :    0.015684    0.890608
Sum of atomic charges         :   -0.0000000

LOEWDIN ATOMIC CHARGES AND SPIN POPULATIONS
-------------------------------------------
   0 B :   -0.032906    1.010053
   1 N :    0.032906    0.989947

  Mayer bond orders larger than 0.1
B(  0-B ,  1-N ) :   2.3505

FINAL SINGLE POINT ENERGY       -79.337883847283

DIPOLE MOMENT
-------------
                                X             Y             Z
Electronic contribution:      0.00000       0.00000      -0.99165
Nuclear contribution   :      0.00000       0.00000       0.56854
                        -----------------------------------------
Total Dipole Moment    :      0.00000       0.00000      -0.42311
                        -----------------------------------------
Magnitude (a.u.)       :      0.42311
Magnitude (Debye)      :      1.07547

Rotational constants in cm-1:     0.000000     1.573778     1.573778
Rotational constants in MHz :     0.000000 47180.691902 47180.691902

                             ****ORCA TERMINATED NORMALLY****
TOTAL RUN TIME: 0 days 0 hours 6 minutes 28 seconds 580 msec
