                         Program Version 4.1.1  - RELEASE  -
|  1> ! uks pbe nori aug-pc-4 grid5 nofinalgrid verytightscf
|  2>
|  3> %maxcore 1500
|  4>
|  5> %pal nprocs 4 end
|  6> %scf
|  7>     efield 0.0, 0.0, -0.01
|  8>     maxiter 300
|  9> end
| 10> * xyz 0 3
| 11> B      0.0000  0.0000  0.0000
| 12> N      0.0000  0.0000  1.3250
| 13> *
| 14>
| 15>                          ****END OF INPUT****

CARTESIAN COORDINATES (ANGSTROEM)
---------------------------------
  B      0.000000    0.000000    0.000000
  N      0.000000    0.000000    1.325000

 Total Charge           Charge          ....    0
 Multiplicity           Mult            ....    3
 Number of Electrons    NEL             ....   12
 Basis Dimension        Dim             ....  290

ORBITAL ENERGIES
----------------
                 SPIN UP ORBITALS
  NO   OCC          E(Eh)            E(eV)
   0   1.0000     -14.036723      -381.9587
   1   1.0000      -6.602449      -179.6618
   2   1.0000      -0.769099       -20.9283
   3   1.0000      -0.360320        -9.8048
   4   1.0000      -0.332424        -9.0457
   5   1.0000      -0.287608        -7.8262
   6   1.0000      -0.274494        -7.4694
   7   0.0000      -0.073140        -1.9903
   8   0.0000      -0.053454        -1.4546
   9   0.0000      -0.049089        -1.3358
  10   0.0000      -0.017292        -0.4705
  11   0.0000      -0.016536        -0.4500

                 SPIN DOWN ORBITALS
  NO   OCC          E(Eh)            E(eV)
   0   1.0000     -14.021010      -381.5311
   1   1.0000      -6.586208      -179.2198
   2   1.0000      -0.719280       -19.5726
   3   1.0000      -0.318562        -8.6685
   4   1.0000      -0.269589        -7.3359
   5   0.0000      -0.244672        -6.6579
   6   0.0000      -0.174137        -4.7385
   7   0.0000      -0.052317        -1.4236
   8   0.0000      -0.016252        -0.4422
   9   0.0000      -0.015321        -0.4169

MULLIKEN ATOMIC CHARGES AND SPIN POPULATIONS
--------------------------------------------
   0 B :    0.104734    1.172776
   1 N :   -0.104734    0.827224
Sum of atomic charges         :   -0.0000000

LOEWDIN ATOMIC CHARGES AND SPIN POPULATIONS
-------------------------------------------
   0 B :    0.005193    1.050028
   1 N :   -0.005193    0.949972

  Mayer bond orders larger than 0.1
B(  0-B ,  1-N ) :   2.2250

FINAL SINGLE POINT ENERGY       -79.352675109772

DIPOLE MOMENT
-------------
                                X             Y             Z
Electronic contribution:      0.00000       0.00000      -1.60816
Nuclear contribution   :      0.00000       0.00000       0.56854
                        -----------------------------------------
Total Dipole Moment    :      0.00000       0.00000      -1.03962
                        -----------------------------------------
Magnitude (a.u.)       :      1.03962
Magnitude (Debye)      :      2.64251

Rotational constants in cm-1:     0.000000     1.573778     1.573778
Rotational constants in MHz :     0.000000 47180.691902 47180.691902

                             ****ORCA TERMINATED NORMALLY****
TOTAL RUN TIME: 0 days 0 hours 6 minutes 39 seconds 871 msec
