                         Program Version 4.1.1  - RELEASE  -
|  1> ! uks pbe nori aug-pc-4 grid5 nofinalgrid verytightscf
|  2>
|  3> %maxcore 1500
|  4>
|  5> %pal nprocs 4 end
|  6> %scf
|  7>     efield 0.0, 0.0, 0.01
|  8>     maxiter 300
|  9> end
| 10> * xyz 0 2
| 11> Li 0.0 0.0 0.0
| 12> *
| 13>
| 14>                          ****END OF INPUT****

CARTESIAN COORDINATES (ANGSTROEM)
---------------------------------
  Li     0.000000    0.000000    0.000000

 Total Charge           Charge          ....    0
 Multiplicity           Mult            ....    2
 Number of Electrons    NEL             ....    3
 Basis Dimension        Dim             ....   83

ORBITAL ENERGIES
----------------
                 SPIN UP ORBITALS
  NO   OCC          E(Eh)            E(eV)
   0   1.0000      -1.922106       -52.3032
   1   1.0000      -0.128702        -3.5022
   2   0.0000      -0.089155        -2.4260
   3   0.0000      -0.060081        -1.6349
   4   0.0000      -0.060081        -1.6349
   5   0.0000      -0.053400        -1.4531
   6   0.0000      -0.015852        -0.4314

                 SPIN DOWN ORBITALS
  NO   OCC          E(Eh)            E(eV)
   0   1.0000      -1.914809       -52.1046
   1   0.0000      -0.054507        -1.4832
   2   0.0000      -0.008479        -0.2307
   3   0.0000       0.022549         0.6136
   4   0.0000       0.022556         0.6138
   5   0.0000       0.062927         1.7123

MULLIKEN ATOMIC CHARGES AND SPIN POPULATIONS
--------------------------------------------
   0 Li:    0.000000    1.000000
Sum of atomic charges         :    0.0000000

LOEWDIN ATOMIC CHARGES AND SPIN POPULATIONS
-------------------------------------------
   0 Li:    0.000000    1.000000

FINAL SINGLE POINT ENERGY        -7.469779036350

DIPOLE MOMENT
-------------
                                X             Y             Z
Electronic contribution:     -0.00000       0.00000       1.69402
Nuclear contribution   :      0.00000       0.00000       0.00000
                        -----------------------------------------
Total Dipole Moment    :     -0.00000       0.00000       1.69402
                        -----------------------------------------
Magnitude (a.u.)       :      1.69402
Magnitude (Debye)      :      4.30586

Rotational constants in cm-1:     0.000000     0.000000     0.000000
Rotational constants in MHz :     0.000000     0.000000     0.000000

                             ****ORCA TERMINATED NORMALLY****
TOTAL RUN TIME: 0 days 0 hours 0 minutes 6 seconds 219 msec
