                         Program Version 4.1.1  - RELEASE  -
|  1> ! uks pbe nori aug-pc-4 grid5 nofinalgrid verytightscf
|  2>
|  3> %maxcore 1500
|  4>
|  5> %pal nprocs 4 end
|  6> %scf
|  7>     efield 0.0, 0.0, 0.01
|  8>     maxiter 300
|  9> end
| 10> * xyz 0 2
| 11> N      0.0000  0.0000  0.0000
| 12> O      0.0000  0.0000  1.1538
| 13> *
| 14>
| 15>                          ****END OF INPUT****

CARTESIAN COORDINATES (ANGSTROEM)
---------------------------------
  N      0.000000    0.000000    0.000000
  O      0.000000    0.000000    1.153800

 Total Charge           Charge          ....    0
 Multiplicity           Mult            ....    2
 Number of Electrons    NEL             ....   15
 Basis Dimension        Dim             ....  290

ORBITAL ENERGIES
----------------
                 SPIN UP ORBITALS
  NO   OCC          E(Eh)            E(eV)
   0   1.0000     -18.893590      -514.1207
   1   1.0000     -14.122989      -384.3061
   2   1.0000      -1.156974       -31.4829
   3   1.0000      -0.623234       -16.9590
   4   1.0000      -0.476742       -12.9728
   5   1.0000      -0.474830       -12.9208
   6   1.0000      -0.438142       -11.9225
   7   1.0000      -0.171480        -4.6662
   8   0.0000      -0.161227        -4.3872
   9   0.0000      -0.049042        -1.3345
  10   0.0000      -0.011691        -0.3181
  11   0.0000      -0.007242        -0.1971
  12   0.0000       0.006219         0.1692

                 SPIN DOWN ORBITALS
  NO   OCC          E(Eh)            E(eV)
   0   1.0000     -18.884269      -513.8671
   1   1.0000     -14.109774      -383.9465
   2   1.0000      -1.140281       -31.0286
   3   1.0000      -0.595461       -16.2033
   4   1.0000      -0.465696       -12.6722
   5   1.0000      -0.427823       -11.6417
   6   1.0000      -0.418978       -11.4010
   7   0.0000      -0.147086        -4.0024
   8   0.0000      -0.103906        -2.8274
   9   0.0000      -0.042724        -1.1626
  10   0.0000      -0.002872        -0.0781
  11   0.0000      -0.001016        -0.0277

MULLIKEN ATOMIC CHARGES AND SPIN POPULATIONS
--------------------------------------------
   0 N :    0.024312    0.621649
   1 O :   -0.024312    0.378351
Sum of atomic charges         :   -0.0000000

LOEWDIN ATOMIC CHARGES AND SPIN POPULATIONS
-------------------------------------------
   0 N :   -0.084072    0.579085
   1 O :    0.084072    0.420915

  Mayer bond orders larger than 0.1
B(  0-N ,  1-O ) :   2.2347

FINAL SINGLE POINT ENERGY      -129.827337659677

DIPOLE MOMENT
-------------
                                X             Y             Z
Electronic contribution:      0.00000       0.00000       0.24937
Nuclear contribution   :      0.00000       0.00000       0.00458
                        -----------------------------------------
Total Dipole Moment    :      0.00000       0.00000       0.25395
                        -----------------------------------------
Magnitude (a.u.)       :      0.25395
Magnitude (Debye)      :      0.64548

Rotational constants in cm-1:     0.000000     1.695532     1.695532
Rotational constants in MHz :     0.000000 50830.768128 50830.768128

                             ****ORCA TERMINATED NORMALLY****
TOTAL RUN TIME: 0 days 0 hours 5 minutes 9 seconds 176 msec
