                         Program Version 4.1.1  - RELEASE  -
|  1> ! uks pbe nori aug-pc-4 grid5 nofinalgrid verytightscf
|  2>
|  3> %maxcore 1500
|  4>
|  5> %pal nprocs 4 end
|  6> %scf
|  7>     efield 0.0, 0.0, 0.0
|  8>     maxiter 300
|  9> end
| 10> * xyz 0 2
| 11> N      0.0000  0.0000  0.0000
| 12> O      0.0000  0.0000  1.1538
| 13> *
| 14>
| 15>                          ****END OF INPUT****

CARTESIAN COORDINATES (ANGSTROEM)
---------------------------------
  N      0.000000    0.000000    0.000000
  O      0.000000    0.000000    1.153800

 Total Charge           Charge          ....    0
 Multiplicity           Mult            ....    2
 Number of Electrons    NEL             ....   15
 Basis Dimension        Dim             ....  290

ORBITAL ENERGIES
----------------
                 SPIN UP ORBITALS
  NO   OCC          E(Eh)            E(eV)
   0   1.0000     -18.889863      -514.0193
   1   1.0000     -14.119323      -384.2063
   2   1.0000      -1.154617       -31.4187
   3   1.0000      -0.622338       -16.9347
   4   1.0000      -0.474568       -12.9137
   5   1.0000      -0.472770       -12.8647
   6   1.0000      -0.432238       -11.7618
   7   1.0000      -0.167267        -4.5516
   8   0.0000      -0.156801        -4.2668
   9   0.0000      -0.001378        -0.0375
  10   0.0000       0.020651         0.5619
  11   0.0000       0.022104         0.6015
  12   0.0000       0.024886         0.6772

                 SPIN DOWN ORBITALS
  NO   OCC          E(Eh)            E(eV)
   0   1.0000     -18.880966      -513.7772
   1   1.0000     -14.105606      -383.8330
   2   1.0000      -1.138069       -30.9684
   3   1.0000      -0.594998       -16.1907
   4   1.0000      -0.463794       -12.6205
   5   1.0000      -0.426165       -11.5966
   6   1.0000      -0.412269       -11.2184
   7   0.0000      -0.142335        -3.8731
   8   0.0000      -0.098274        -2.6742
   9   0.0000       0.004392         0.1195
  10   0.0000       0.026425         0.7191
  11   0.0000       0.027528         0.7491

MULLIKEN ATOMIC CHARGES AND SPIN POPULATIONS
--------------------------------------------
   0 N :    0.072875    0.626703
   1 O :   -0.072875    0.373297
Sum of atomic charges         :   -0.0000000

LOEWDIN ATOMIC CHARGES AND SPIN POPULATIONS
-------------------------------------------
   0 N :   -0.071863    0.587219
   1 O :    0.071863    0.412781

  Mayer bond orders larger than 0.1
B(  0-N ,  1-O ) :   2.1863

FINAL SINGLE POINT ENERGY      -129.825621208861

DIPOLE MOMENT
-------------
                                X             Y             Z
Electronic contribution:      0.00000      -0.00000       0.08563
Nuclear contribution   :      0.00000       0.00000       0.00458
                        -----------------------------------------
Total Dipole Moment    :      0.00000      -0.00000       0.09021
                        -----------------------------------------
Magnitude (a.u.)       :      0.09021
Magnitude (Debye)      :      0.22929

Rotational constants in cm-1:     0.000000     1.695532     1.695532
Rotational constants in MHz :     0.000000 50830.768128 50830.768128

                             ****ORCA TERMINATED NORMALLY****
TOTAL RUN TIME: 0 days 0 hours 4 minutes 52 seconds 311 msec
