                         Program Version 4.1.1  - RELEASE  -
|  1> ! uks pbe nori aug-pc-4 grid5 nofinalgrid verytightscf
|  2>
|  3> %maxcore 1500
|  4>
|  5> %pal nprocs 4 end
|  6> %scf
|  7>     efield 0.0, 0.0, -0.01
|  8>     maxiter 300
|  9> end
| 10> * xyz 0 2
| 11> N      0.0000  0.0000  0.0000
| 12> O      0.0000  0.0000  1.1538
| 13> *
| 14>
| 15>                          ****END OF INPUT****

CARTESIAN COORDINATES (ANGSTROEM)
---------------------------------
  N      0.000000    0.000000    0.000000
  O      0.000000    0.000000    1.153800

 Total Charge           Charge          ....    0
 Multiplicity           Mult            ....    2
 Number of Electrons    NEL             ....   15
 Basis Dimension        Dim             ....  290

ORBITAL ENERGIES
----------------
                 SPIN UP ORBITALS
  NO   OCC          E(Eh)            E(eV)
   0   1.0000     -18.887560      -513.9566
   1   1.0000     -14.116966      -384.1422
   2   1.0000      -1.153403       -31.3857
   3   1.0000      -0.622765       -16.9463
   4   1.0000      -0.473456       -12.8834
   5   1.0000      -0.471771       -12.8375
   6   1.0000      -0.427044       -11.6205
   7   1.0000      -0.164206        -4.4683
   8   0.0000      -0.153511        -4.1773
   9   0.0000      -0.042334        -1.1520
  10   0.0000       0.004704         0.1280
  11   0.0000       0.007594         0.2066
  12   0.0000       0.022340         0.6079

                 SPIN DOWN ORBITALS
  NO   OCC          E(Eh)            E(eV)
   0   1.0000     -18.879111      -513.7267
   1   1.0000     -14.102774      -383.7560
   2   1.0000      -1.137030       -30.9402
   3   1.0000      -0.595944       -16.2165
   4   1.0000      -0.462989       -12.5986
   5   1.0000      -0.425717       -11.5843
   6   1.0000      -0.406248       -11.0546
   7   0.0000      -0.138727        -3.7750
   8   0.0000      -0.093959        -2.5567
   9   0.0000      -0.037498        -1.0204
  10   0.0000       0.009977         0.2715
  11   0.0000       0.011492         0.3127

MULLIKEN ATOMIC CHARGES AND SPIN POPULATIONS
--------------------------------------------
   0 N :    0.118998    0.635892
   1 O :   -0.118998    0.364108
Sum of atomic charges         :   -0.0000000

LOEWDIN ATOMIC CHARGES AND SPIN POPULATIONS
-------------------------------------------
   0 N :   -0.060030    0.595414
   1 O :    0.060030    0.404586

  Mayer bond orders larger than 0.1
B(  0-N ,  1-O ) :   2.1285

FINAL SINGLE POINT ENERGY      -129.825525487449

DIPOLE MOMENT
-------------
                                X             Y             Z
Electronic contribution:      0.00000      -0.00000      -0.07564
Nuclear contribution   :      0.00000       0.00000       0.00458
                        -----------------------------------------
Total Dipole Moment    :      0.00000      -0.00000      -0.07106
                        -----------------------------------------
Magnitude (a.u.)       :      0.07106
Magnitude (Debye)      :      0.18063

Rotational constants in cm-1:     0.000000     1.695532     1.695532
Rotational constants in MHz :     0.000000 50830.768128 50830.768128

                             ****ORCA TERMINATED NORMALLY****
TOTAL RUN TIME: 0 days 0 hours 5 minutes 39 seconds 414 msec
