                         Program Version 4.1.1  - RELEASE  -
|  1> ! uks pbe nori aug-pc-4 grid5 nofinalgrid verytightscf
|  2>
|  3> %maxcore 1500
|  4>
|  5> %pal nprocs 4 end
|  6> %scf
|  7>     efield 0.01, 0.0, 0.0
|  8>     maxiter 300
|  9> end
| 10> * xyz 0 2
| 11> N      0.0000  0.0000  0.0000
| 12> O      0.0000  0.0000  1.1538
| 13> *
| 14>
| 15>                          ****END OF INPUT****

CARTESIAN COORDINATES (ANGSTROEM)
---------------------------------
  N      0.000000    0.000000    0.000000
  O      0.000000    0.000000    1.153800

 Total Charge           Charge          ....    0
 Multiplicity           Mult            ....    2
 Number of Electrons    NEL             ....   15
 Basis Dimension        Dim             ....  290

ORBITAL ENERGIES
----------------
                 SPIN UP ORBITALS
  NO   OCC          E(Eh)            E(eV)
   0   1.0000     -18.890506      -514.0368
   1   1.0000     -14.120103      -384.2275
   2   1.0000      -1.155188       -31.4343
   3   1.0000      -0.622855       -16.9488
   4   1.0000      -0.475194       -12.9307
   5   1.0000      -0.473282       -12.8787
   6   1.0000      -0.432670       -11.7736
   7   1.0000      -0.167873        -4.5681
   8   0.0000      -0.157333        -4.2812
   9   0.0000      -0.033172        -0.9027
  10   0.0000      -0.004492        -0.1222
  11   0.0000       0.020061         0.5459
  12   0.0000       0.037131         1.0104

                 SPIN DOWN ORBITALS
  NO   OCC          E(Eh)            E(eV)
   0   1.0000     -18.881616      -513.7949
   1   1.0000     -14.106408      -383.8549
   2   1.0000      -1.138663       -30.9846
   3   1.0000      -0.595552       -16.2058
   4   1.0000      -0.464317       -12.6347
   5   1.0000      -0.427208       -11.6249
   6   1.0000      -0.412355       -11.2207
   7   0.0000      -0.142877        -3.8879
   8   0.0000      -0.099079        -2.6961
   9   0.0000      -0.024838        -0.6759
  10   0.0000       0.003233         0.0880
  11   0.0000       0.023668         0.6440

MULLIKEN ATOMIC CHARGES AND SPIN POPULATIONS
--------------------------------------------
   0 N :    0.067914    0.628953
   1 O :   -0.067914    0.371047
Sum of atomic charges         :   -0.0000000

LOEWDIN ATOMIC CHARGES AND SPIN POPULATIONS
-------------------------------------------
   0 N :   -0.072060    0.587205
   1 O :    0.072060    0.412795

  Mayer bond orders larger than 0.1
B(  0-N ,  1-O ) :   2.1769

FINAL SINGLE POINT ENERGY      -129.826190516474

DIPOLE MOMENT
-------------
                                X             Y             Z
Electronic contribution:      0.11449      -0.00000       0.08812
Nuclear contribution   :      0.00000       0.00000       0.00458
                        -----------------------------------------
Total Dipole Moment    :      0.11449      -0.00000       0.09270
                        -----------------------------------------
Magnitude (a.u.)       :      0.14731
Magnitude (Debye)      :      0.37443

Rotational constants in cm-1:     0.000000     1.695532     1.695532
Rotational constants in MHz :     0.000000 50830.768128 50830.768128

                             ****ORCA TERMINATED NORMALLY****
TOTAL RUN TIME: 0 days 0 hours 5 minutes 29 seconds 514 msec
