                         Program Version 4.1.1  - RELEASE  -
|  1> ! uks pbe nori aug-pc-4 grid5 nofinalgrid verytightscf
|  2>
|  3> %maxcore 1500
|  4>
|  5> %pal nprocs 4 end
|  6> %scf
|  7>     efield 0.0, 0.0, 0.01
|  8>     maxiter 300
|  9> end
| 10> * xyz 0 2
| 11> H 0 0 0
| 12> O 0 0 0.9697
| 13> *
| 14>
| 15>                          ****END OF INPUT****

CARTESIAN COORDINATES (ANGSTROEM)
---------------------------------
  H      0.000000    0.000000    0.000000
  O      0.000000    0.000000    0.969700

 Total Charge           Charge          ....    0
 Multiplicity           Mult            ....    2
 Number of Electrons    NEL             ....    9
 Basis Dimension        Dim             ....  233

ORBITAL ENERGIES
----------------
                 SPIN UP ORBITALS
  NO   OCC          E(Eh)            E(eV)
   0   1.0000     -18.831366      -512.4275
   1   1.0000      -0.938808       -25.5463
   2   1.0000      -0.431904       -11.7527
   3   1.0000      -0.368925       -10.0390
   4   1.0000      -0.295758        -8.0480
   5   0.0000      -0.062765        -1.7079
   6   0.0000      -0.007349        -0.2000
   7   0.0000       0.018921         0.5149
   8   0.0000       0.021105         0.5743
   9   0.0000       0.038172         1.0387

                 SPIN DOWN ORBITALS
  NO   OCC          E(Eh)            E(eV)
   0   1.0000     -18.807703      -511.7836
   1   1.0000      -0.881209       -23.9789
   2   1.0000      -0.408768       -11.1231
   3   1.0000      -0.273092        -7.4312
   4   0.0000      -0.238780        -6.4975
   5   0.0000      -0.060551        -1.6477
   6   0.0000      -0.004563        -0.1242
   7   0.0000       0.020854         0.5675
   8   0.0000       0.026265         0.7147

MULLIKEN ATOMIC CHARGES AND SPIN POPULATIONS
--------------------------------------------
   0 H :    0.179933    0.003592
   1 O :   -0.179933    0.996408
Sum of atomic charges         :   -0.0000000

LOEWDIN ATOMIC CHARGES AND SPIN POPULATIONS
-------------------------------------------
   0 H :   -0.881351    0.180235
   1 O :    0.881351    0.819765

  Mayer bond orders larger than 0.1
B(  0-H ,  1-O ) :   1.0766

FINAL SINGLE POINT ENERGY       -75.684414939025

DIPOLE MOMENT
-------------
                                X             Y             Z
Electronic contribution:     -0.00000       0.00000       0.32160
Nuclear contribution   :      0.00000       0.00000      -0.85498
                        -----------------------------------------
Total Dipole Moment    :     -0.00000       0.00000      -0.53338
                        -----------------------------------------
Magnitude (a.u.)       :      0.53338
Magnitude (Debye)      :      1.35575

Rotational constants in cm-1:     0.000000    18.905861    18.905861
Rotational constants in MHz :     0.000000 566783.441526 566783.441526

                             ****ORCA TERMINATED NORMALLY****
TOTAL RUN TIME: 0 days 0 hours 1 minutes 37 seconds 241 msec
