                         Program Version 4.1.1  - RELEASE  -
|  1> ! uks pbe nori aug-pc-4 grid5 nofinalgrid verytightscf
|  2>
|  3> %maxcore 1500
|  4>
|  5> %pal nprocs 4 end
|  6> %scf
|  7>     efield -0.01, 0.0, 0.0
|  8>     maxiter 300
|  9> end
| 10> * xyz 0 2
| 11> H 0 0 0
| 12> O 0 0 0.9697
| 13> *
| 14>
| 15>                          ****END OF INPUT****

CARTESIAN COORDINATES (ANGSTROEM)
---------------------------------
  H      0.000000    0.000000    0.000000
  O      0.000000    0.000000    0.969700

 Total Charge           Charge          ....    0
 Multiplicity           Mult            ....    2
 Number of Electrons    NEL             ....    9
 Basis Dimension        Dim             ....  233

ORBITAL ENERGIES
----------------
                 SPIN UP ORBITALS
  NO   OCC          E(Eh)            E(eV)
   0   1.0000     -18.828514      -512.3499
   1   1.0000      -0.935731       -25.4625
   2   1.0000      -0.430420       -11.7123
   3   1.0000      -0.367680       -10.0051
   4   1.0000      -0.294495        -8.0136
   5   0.0000      -0.043337        -1.1793
   6   0.0000       0.000799         0.0217
   7   0.0000       0.026895         0.7319
   8   0.0000       0.028749         0.7823
   9   0.0000       0.054892         1.4937

                 SPIN DOWN ORBITALS
  NO   OCC          E(Eh)            E(eV)
   0   1.0000     -18.804881      -511.7068
   1   1.0000      -0.878041       -23.8927
   2   1.0000      -0.407470       -11.0878
   3   1.0000      -0.271828        -7.3968
   4   0.0000      -0.237655        -6.4669
   5   0.0000      -0.037944        -1.0325
   6   0.0000       0.003888         0.1058
   7   0.0000       0.029004         0.7892
   8   0.0000       0.029027         0.7899

MULLIKEN ATOMIC CHARGES AND SPIN POPULATIONS
--------------------------------------------
   0 H :    0.202409    0.003997
   1 O :   -0.202409    0.996003
Sum of atomic charges         :    0.0000000

LOEWDIN ATOMIC CHARGES AND SPIN POPULATIONS
-------------------------------------------
   0 H :   -0.873299    0.180192
   1 O :    0.873299    0.819808

  Mayer bond orders larger than 0.1
B(  0-H ,  1-O ) :   1.0447

FINAL SINGLE POINT ENERGY       -75.690564185993

DIPOLE MOMENT
-------------
                                X             Y             Z
Electronic contribution:     -0.06885       0.00000       0.22766
Nuclear contribution   :      0.00000       0.00000      -0.85498
                        -----------------------------------------
Total Dipole Moment    :     -0.06885       0.00000      -0.62732
                        -----------------------------------------
Magnitude (a.u.)       :      0.63108
Magnitude (Debye)      :      1.60409

Rotational constants in cm-1:     0.000000    18.905861    18.905861
Rotational constants in MHz :     0.000000 566783.441526 566783.441526

                             ****ORCA TERMINATED NORMALLY****
TOTAL RUN TIME: 0 days 0 hours 1 minutes 49 seconds 555 msec
