                         Program Version 4.1.1  - RELEASE  -
|  1> ! uks pbe nori aug-pc-4 grid5 nofinalgrid verytightscf
|  2>
|  3> %maxcore 1500
|  4>
|  5> %pal nprocs 4 end
|  6> %scf
|  7>     efield 0.0, 0.0, 0.0
|  8>     maxiter 300
|  9> end
| 10> * xyz 0 2
| 11> H 0 0 0
| 12> O 0 0 0.9697
| 13> *
| 14>
| 15>                          ****END OF INPUT****

CARTESIAN COORDINATES (ANGSTROEM)
---------------------------------
  H      0.000000    0.000000    0.000000
  O      0.000000    0.000000    0.969700

 Total Charge           Charge          ....    0
 Multiplicity           Mult            ....    2
 Number of Electrons    NEL             ....    9
 Basis Dimension        Dim             ....  233

ORBITAL ENERGIES
----------------
                 SPIN UP ORBITALS
  NO   OCC          E(Eh)            E(eV)
   0   1.0000     -18.828085      -512.3382
   1   1.0000      -0.935438       -25.4546
   2   1.0000      -0.430128       -11.7044
   3   1.0000      -0.367344        -9.9959
   4   1.0000      -0.294181        -8.0051
   5   0.0000      -0.029770        -0.8101
   6   0.0000       0.028912         0.7867
   7   0.0000       0.030651         0.8341
   8   0.0000       0.032958         0.8968
   9   0.0000       0.041389         1.1263

                 SPIN DOWN ORBITALS
  NO   OCC          E(Eh)            E(eV)
   0   1.0000     -18.804447      -511.6950
   1   1.0000      -0.877725       -23.8841
   2   1.0000      -0.407173       -11.0797
   3   1.0000      -0.271512        -7.3882
   4   0.0000      -0.237220        -6.4551
   5   0.0000      -0.024770        -0.6740
   6   0.0000       0.030056         0.8179
   7   0.0000       0.032970         0.8972
   8   0.0000       0.037950         1.0327

MULLIKEN ATOMIC CHARGES AND SPIN POPULATIONS
--------------------------------------------
   0 H :    0.202673    0.003989
   1 O :   -0.202673    0.996011
Sum of atomic charges         :    0.0000000

LOEWDIN ATOMIC CHARGES AND SPIN POPULATIONS
-------------------------------------------
   0 H :   -0.873189    0.180077
   1 O :    0.873189    0.819923

  Mayer bond orders larger than 0.1
B(  0-H ,  1-O ) :   1.0433

FINAL SINGLE POINT ENERGY       -75.690220387360

DIPOLE MOMENT
-------------
                                X             Y             Z
Electronic contribution:      0.00000       0.00000       0.22769
Nuclear contribution   :      0.00000       0.00000      -0.85498
                        -----------------------------------------
Total Dipole Moment    :      0.00000       0.00000      -0.62729
                        -----------------------------------------
Magnitude (a.u.)       :      0.62729
Magnitude (Debye)      :      1.59445

Rotational constants in cm-1:     0.000000    18.905861    18.905861
Rotational constants in MHz :     0.000000 566783.441526 566783.441526

                             ****ORCA TERMINATED NORMALLY****
TOTAL RUN TIME: 0 days 0 hours 1 minutes 37 seconds 34 msec
