                         Program Version 4.1.1  - RELEASE  -
|  1> ! uks pbe nori aug-pc-4 grid5 nofinalgrid verytightscf
|  2>
|  3> %maxcore 1500
|  4>
|  5> %pal nprocs 4 end
|  6> %scf
|  7>     efield 0.0, 0.0, -0.01
|  8>     maxiter 300
|  9> end
| 10> * xyz 0 2
| 11> H 0 0 0
| 12> O 0 0 0.9697
| 13> *
| 14>
| 15>                          ****END OF INPUT****

CARTESIAN COORDINATES (ANGSTROEM)
---------------------------------
  H      0.000000    0.000000    0.000000
  O      0.000000    0.000000    0.969700

 Total Charge           Charge          ....    0
 Multiplicity           Mult            ....    2
 Number of Electrons    NEL             ....    9
 Basis Dimension        Dim             ....  233

ORBITAL ENERGIES
----------------
                 SPIN UP ORBITALS
  NO   OCC          E(Eh)            E(eV)
   0   1.0000     -18.825845      -512.2773
   1   1.0000      -0.932856       -25.3843
   2   1.0000      -0.429202       -11.6792
   3   1.0000      -0.366525        -9.9736
   4   1.0000      -0.293390        -7.9836
   5   0.0000      -0.030799        -0.8381
   6   0.0000       0.006904         0.1879
   7   0.0000       0.019283         0.5247
   8   0.0000       0.020775         0.5653
   9   0.0000       0.072205         1.9648

                 SPIN DOWN ORBITALS
  NO   OCC          E(Eh)            E(eV)
   0   1.0000     -18.802222      -511.6345
   1   1.0000      -0.875012       -23.8103
   2   1.0000      -0.406421       -11.0593
   3   1.0000      -0.270711        -7.3664
   4   0.0000      -0.236436        -6.4338
   5   0.0000      -0.028449        -0.7741
   6   0.0000       0.011542         0.3141
   7   0.0000       0.020459         0.5567
   8   0.0000       0.024344         0.6624

MULLIKEN ATOMIC CHARGES AND SPIN POPULATIONS
--------------------------------------------
   0 H :    0.227515    0.004526
   1 O :   -0.227515    0.995474
Sum of atomic charges         :    0.0000000

LOEWDIN ATOMIC CHARGES AND SPIN POPULATIONS
-------------------------------------------
   0 H :   -0.865514    0.179801
   1 O :    0.865514    0.820199

  Mayer bond orders larger than 0.1
B(  0-H ,  1-O ) :   1.0066

FINAL SINGLE POINT ENERGY       -75.696954998237

DIPOLE MOMENT
-------------
                                X             Y             Z
Electronic contribution:     -0.00000       0.00000       0.13552
Nuclear contribution   :      0.00000       0.00000      -0.85498
                        -----------------------------------------
Total Dipole Moment    :     -0.00000       0.00000      -0.71946
                        -----------------------------------------
Magnitude (a.u.)       :      0.71946
Magnitude (Debye)      :      1.82872

Rotational constants in cm-1:     0.000000    18.905861    18.905861
Rotational constants in MHz :     0.000000 566783.441526 566783.441526

                             ****ORCA TERMINATED NORMALLY****
TOTAL RUN TIME: 0 days 0 hours 1 minutes 23 seconds 574 msec
