                         Program Version 4.1.1  - RELEASE  -
|  1> ! uks pbe nori aug-pc-4 grid5 nofinalgrid verytightscf
|  2>
|  3> %maxcore 1500
|  4>
|  5> %pal nprocs 4 end
|  6> %scf
|  7>     efield 0.0, 0.0, 0.01
|  8>     maxiter 300
|  9> end
| 10> * xyz 0 2
| 11> S	0.0000	0.0000	0.0000
| 12> F	0.0000	0.0000	1.6006
| 13> *
| 14>
| 15>                          ****END OF INPUT****

CARTESIAN COORDINATES (ANGSTROEM)
---------------------------------
  S      0.000000    0.000000    0.000000
  F      0.000000    0.000000    1.600600

 Total Charge           Charge          ....    0
 Multiplicity           Mult            ....    2
 Number of Electrons    NEL             ....   25
 Basis Dimension        Dim             ....  286

ORBITAL ENERGIES
----------------
                 SPIN UP ORBITALS
  NO   OCC          E(Eh)            E(eV)
   0   1.0000     -88.130263     -2398.1464
   1   1.0000     -24.316416      -661.6833
   2   1.0000      -7.761037      -211.1886
   3   1.0000      -5.785392      -157.4285
   4   1.0000      -5.784756      -157.4112
   5   1.0000      -5.767374      -156.9382
   6   1.0000      -1.154131       -31.4055
   7   1.0000      -0.671846       -18.2819
   8   1.0000      -0.468553       -12.7500
   9   1.0000      -0.447156       -12.1677
  10   1.0000      -0.428766       -11.6673
  11   1.0000      -0.276645        -7.5279
  12   1.0000      -0.236573        -6.4375
  13   0.0000      -0.118915        -3.2358
  14   0.0000      -0.055092        -1.4991
  15   0.0000      -0.010191        -0.2773
  16   0.0000      -0.007711        -0.2098
  17   0.0000       0.002904         0.0790

                 SPIN DOWN ORBITALS
  NO   OCC          E(Eh)            E(eV)
   0   1.0000     -88.126024     -2398.0310
   1   1.0000     -24.312378      -661.5734
   2   1.0000      -7.756691      -211.0703
   3   1.0000      -5.782806      -157.3581
   4   1.0000      -5.772131      -157.0677
   5   1.0000      -5.764807      -156.8684
   6   1.0000      -1.146381       -31.1946
   7   1.0000      -0.646104       -17.5814
   8   1.0000      -0.454836       -12.3767
   9   1.0000      -0.424800       -11.5594
  10   1.0000      -0.424637       -11.5550
  11   1.0000      -0.226042        -6.1509
  12   0.0000      -0.213638        -5.8134
  13   0.0000      -0.105167        -2.8617
  14   0.0000      -0.051889        -1.4120
  15   0.0000      -0.007127        -0.1939
  16   0.0000      -0.002671        -0.0727

MULLIKEN ATOMIC CHARGES AND SPIN POPULATIONS
--------------------------------------------
   0 S :   -0.028526    0.902794
   1 F :    0.028526    0.097206
Sum of atomic charges         :   -0.0000000

LOEWDIN ATOMIC CHARGES AND SPIN POPULATIONS
-------------------------------------------
   0 S :    0.975338    0.666179
   1 F :   -0.975338    0.333821

  Mayer bond orders larger than 0.1
B(  0-S ,  1-F ) :   1.0377

FINAL SINGLE POINT ENERGY      -497.780008640031

DIPOLE MOMENT
-------------
                                X             Y             Z
Electronic contribution:      0.00000      -0.00000       0.96453
Nuclear contribution   :      0.00000       0.00000      -0.91396
                        -----------------------------------------
Total Dipole Moment    :      0.00000      -0.00000       0.05056
                        -----------------------------------------
Magnitude (a.u.)       :      0.05056
Magnitude (Debye)      :      0.12852

Rotational constants in cm-1:     0.000000     0.551599     0.551599
Rotational constants in MHz :     0.000000 16536.529748 16536.529748

                             ****ORCA TERMINATED NORMALLY****
TOTAL RUN TIME: 0 days 0 hours 7 minutes 4 seconds 154 msec
