                         Program Version 4.1.1  - RELEASE  -
|  1> ! uks pbe nori aug-pc-4 grid5 nofinalgrid verytightscf
|  2>
|  3> %maxcore 1500
|  4>
|  5> %pal nprocs 4 end
|  6> %scf
|  7>     efield 0.0, 0.0, 0.0
|  8>     maxiter 300
|  9> end
| 10> * xyz 0 2
| 11> S	0.0000	0.0000	0.0000
| 12> F	0.0000	0.0000	1.6006
| 13> *
| 14>
| 15>                          ****END OF INPUT****

CARTESIAN COORDINATES (ANGSTROEM)
---------------------------------
  S      0.000000    0.000000    0.000000
  F      0.000000    0.000000    1.600600

 Total Charge           Charge          ....    0
 Multiplicity           Mult            ....    2
 Number of Electrons    NEL             ....   25
 Basis Dimension        Dim             ....  286

ORBITAL ENERGIES
----------------
                 SPIN UP ORBITALS
  NO   OCC          E(Eh)            E(eV)
   0   1.0000     -88.122190     -2397.9267
   1   1.0000     -24.315073      -661.6468
   2   1.0000      -7.753040      -210.9709
   3   1.0000      -5.777784      -157.2215
   4   1.0000      -5.776768      -157.1938
   5   1.0000      -5.759020      -156.7109
   6   1.0000      -1.155034       -31.4301
   7   1.0000      -0.667345       -18.1594
   8   1.0000      -0.465405       -12.6643
   9   1.0000      -0.448151       -12.1948
  10   1.0000      -0.430630       -11.7180
  11   1.0000      -0.269286        -7.3276
  12   1.0000      -0.228315        -6.2128
  13   0.0000      -0.108253        -2.9457
  14   0.0000      -0.008444        -0.2298
  15   0.0000       0.016450         0.4476
  16   0.0000       0.019368         0.5270
  17   0.0000       0.025384         0.6907

                 SPIN DOWN ORBITALS
  NO   OCC          E(Eh)            E(eV)
   0   1.0000     -88.117871     -2397.8092
   1   1.0000     -24.311321      -661.5447
   2   1.0000      -7.748613      -210.8505
   3   1.0000      -5.775151      -157.1498
   4   1.0000      -5.763894      -156.8435
   5   1.0000      -5.756413      -156.6400
   6   1.0000      -1.147779       -31.2326
   7   1.0000      -0.642011       -17.4700
   8   1.0000      -0.450927       -12.2703
   9   1.0000      -0.427009       -11.6195
  10   1.0000      -0.426942       -11.6177
  11   1.0000      -0.217585        -5.9208
  12   0.0000      -0.204803        -5.5730
  13   0.0000      -0.093940        -2.5562
  14   0.0000      -0.002564        -0.0698
  15   0.0000       0.019989         0.5439
  16   0.0000       0.023418         0.6372

MULLIKEN ATOMIC CHARGES AND SPIN POPULATIONS
--------------------------------------------
   0 S :    0.005740    0.914867
   1 F :   -0.005740    0.085133
Sum of atomic charges         :   -0.0000000

LOEWDIN ATOMIC CHARGES AND SPIN POPULATIONS
-------------------------------------------
   0 S :    0.998759    0.671443
   1 F :   -0.998759    0.328557

  Mayer bond orders larger than 0.1
B(  0-S ,  1-F ) :   0.9763

FINAL SINGLE POINT ENERGY      -497.780832700326

DIPOLE MOMENT
-------------
                                X             Y             Z
Electronic contribution:     -0.00000       0.00000       0.70057
Nuclear contribution   :      0.00000       0.00000      -0.91396
                        -----------------------------------------
Total Dipole Moment    :     -0.00000       0.00000      -0.21339
                        -----------------------------------------
Magnitude (a.u.)       :      0.21339
Magnitude (Debye)      :      0.54240

Rotational constants in cm-1:     0.000000     0.551599     0.551599
Rotational constants in MHz :     0.000000 16536.529748 16536.529748

                             ****ORCA TERMINATED NORMALLY****
TOTAL RUN TIME: 0 days 0 hours 7 minutes 31 seconds 815 msec
