                         Program Version 4.1.1  - RELEASE  -
|  1> ! uks pbe nori aug-pc-4 grid5 nofinalgrid verytightscf
|  2>
|  3> %maxcore 1500
|  4>
|  5> %pal nprocs 4 end
|  6> %scf
|  7>     efield -0.01, 0.0, 0.0
|  8>     maxiter 300
|  9> end
| 10> * xyz 0 2
| 11> S	0.0000	0.0000	0.0000
| 12> F	0.0000	0.0000	1.6006
| 13> *
| 14>
| 15>                          ****END OF INPUT****

CARTESIAN COORDINATES (ANGSTROEM)
---------------------------------
  S      0.000000    0.000000    0.000000
  F      0.000000    0.000000    1.600600

 Total Charge           Charge          ....    0
 Multiplicity           Mult            ....    2
 Number of Electrons    NEL             ....   25
 Basis Dimension        Dim             ....  286

ORBITAL ENERGIES
----------------
                 SPIN UP ORBITALS
  NO   OCC          E(Eh)            E(eV)
   0   1.0000     -88.123134     -2397.9524
   1   1.0000     -24.315672      -661.6631
   2   1.0000      -7.753910      -210.9946
   3   1.0000      -5.778650      -157.2450
   4   1.0000      -5.777647      -157.2178
   5   1.0000      -5.759901      -156.7349
   6   1.0000      -1.155574       -31.4448
   7   1.0000      -0.667929       -18.1753
   8   1.0000      -0.466052       -12.6819
   9   1.0000      -0.448603       -12.2071
  10   1.0000      -0.431138       -11.7319
  11   1.0000      -0.269960        -7.3460
  12   1.0000      -0.228936        -6.2297
  13   0.0000      -0.109143        -2.9699
  14   0.0000      -0.037775        -1.0279
  15   0.0000       0.005838         0.1589
  16   0.0000       0.010645         0.2897
  17   0.0000       0.027568         0.7502

                 SPIN DOWN ORBITALS
  NO   OCC          E(Eh)            E(eV)
   0   1.0000     -88.118821     -2397.8350
   1   1.0000     -24.311915      -661.5608
   2   1.0000      -7.749489      -210.8743
   3   1.0000      -5.776017      -157.1734
   4   1.0000      -5.764800      -156.8682
   5   1.0000      -5.757297      -156.6640
   6   1.0000      -1.148309       -31.2471
   7   1.0000      -0.642629       -17.4868
   8   1.0000      -0.451573       -12.2879
   9   1.0000      -0.427471       -11.6321
  10   1.0000      -0.427446       -11.6314
  11   1.0000      -0.218217        -5.9380
  12   0.0000      -0.205622        -5.5953
  13   0.0000      -0.094908        -2.5826
  14   0.0000      -0.029658        -0.8070
  15   0.0000       0.007951         0.2164
  16   0.0000       0.012281         0.3342

MULLIKEN ATOMIC CHARGES AND SPIN POPULATIONS
--------------------------------------------
   0 S :    0.003200    0.915724
   1 F :   -0.003200    0.084276
Sum of atomic charges         :   -0.0000000

LOEWDIN ATOMIC CHARGES AND SPIN POPULATIONS
-------------------------------------------
   0 S :    0.998115    0.671443
   1 F :   -0.998115    0.328557

  Mayer bond orders larger than 0.1
B(  0-S ,  1-F ) :   0.9733

FINAL SINGLE POINT ENERGY      -497.781872778005

DIPOLE MOMENT
-------------
                                X             Y             Z
Electronic contribution:     -0.20863      -0.00000       0.70276
Nuclear contribution   :      0.00000       0.00000      -0.91396
                        -----------------------------------------
Total Dipole Moment    :     -0.20863      -0.00000      -0.21120
                        -----------------------------------------
Magnitude (a.u.)       :      0.29687
Magnitude (Debye)      :      0.75459

Rotational constants in cm-1:     0.000000     0.551599     0.551599
Rotational constants in MHz :     0.000000 16536.529748 16536.529748

                             ****ORCA TERMINATED NORMALLY****
TOTAL RUN TIME: 0 days 0 hours 7 minutes 30 seconds 70 msec
