                         Program Version 4.1.1  - RELEASE  -
|  1> ! uks pbe nori aug-pc-4 grid5 nofinalgrid verytightscf
|  2>
|  3> %maxcore 1500
|  4>
|  5> %pal nprocs 4 end
|  6> %scf
|  7>     efield 0.0, 0.0, -0.01
|  8>     maxiter 300
|  9> end
| 10> * xyz 0 2
| 11> S	0.0000	0.0000	0.0000
| 12> F	0.0000	0.0000	1.6006
| 13> *
| 14>
| 15>                          ****END OF INPUT****

CARTESIAN COORDINATES (ANGSTROEM)
---------------------------------
  S      0.000000    0.000000    0.000000
  F      0.000000    0.000000    1.600600

 Total Charge           Charge          ....    0
 Multiplicity           Mult            ....    2
 Number of Electrons    NEL             ....   25
 Basis Dimension        Dim             ....  286

ORBITAL ENERGIES
----------------
                 SPIN UP ORBITALS
  NO   OCC          E(Eh)            E(eV)
   0   1.0000     -88.115250     -2397.7379
   1   1.0000     -24.315401      -661.6557
   2   1.0000      -7.746102      -210.7822
   3   1.0000      -5.771247      -157.0436
   4   1.0000      -5.769820      -157.0048
   5   1.0000      -5.751752      -156.5131
   6   1.0000      -1.157266       -31.4908
   7   1.0000      -0.664141       -18.0722
   8   1.0000      -0.463122       -12.6022
   9   1.0000      -0.450527       -12.2595
  10   1.0000      -0.433837       -11.8053
  11   1.0000      -0.262698        -7.1484
  12   1.0000      -0.220904        -6.0111
  13   0.0000      -0.101549        -2.7633
  14   0.0000      -0.030694        -0.8352
  15   0.0000       0.006019         0.1638
  16   0.0000       0.007774         0.2116
  17   0.0000       0.013612         0.3704

                 SPIN DOWN ORBITALS
  NO   OCC          E(Eh)            E(eV)
   0   1.0000     -88.110859     -2397.6184
   1   1.0000     -24.311907      -661.5606
   2   1.0000      -7.741603      -210.6597
   3   1.0000      -5.768571      -156.9708
   4   1.0000      -5.756723      -156.6484
   5   1.0000      -5.749110      -156.4412
   6   1.0000      -1.150453       -31.3054
   7   1.0000      -0.639332       -17.3971
   8   1.0000      -0.447788       -12.1849
   9   1.0000      -0.430683       -11.7195
  10   1.0000      -0.430406       -11.7119
  11   1.0000      -0.209988        -5.7141
  12   0.0000      -0.196838        -5.3562
  13   0.0000      -0.087810        -2.3894
  14   0.0000      -0.028898        -0.7864
  15   0.0000       0.007847         0.2135
  16   0.0000       0.008451         0.2300

MULLIKEN ATOMIC CHARGES AND SPIN POPULATIONS
--------------------------------------------
   0 S :    0.058428    0.922589
   1 F :   -0.058428    0.077411
Sum of atomic charges         :   -0.0000000

LOEWDIN ATOMIC CHARGES AND SPIN POPULATIONS
-------------------------------------------
   0 S :    1.020432    0.676120
   1 F :   -1.020432    0.323880

  Mayer bond orders larger than 0.1
B(  0-S ,  1-F ) :   0.9599

FINAL SINGLE POINT ENERGY      -497.784244575363

DIPOLE MOMENT
-------------
                                X             Y             Z
Electronic contribution:     -0.00000      -0.00000       0.44623
Nuclear contribution   :      0.00000       0.00000      -0.91396
                        -----------------------------------------
Total Dipole Moment    :     -0.00000      -0.00000      -0.46773
                        -----------------------------------------
Magnitude (a.u.)       :      0.46773
Magnitude (Debye)      :      1.18888

Rotational constants in cm-1:     0.000000     0.551599     0.551599
Rotational constants in MHz :     0.000000 16536.529748 16536.529748

                             ****ORCA TERMINATED NORMALLY****
TOTAL RUN TIME: 0 days 0 hours 6 minutes 56 seconds 338 msec
