                         Program Version 4.1.2  - RELEASE  -
|  1> !uks pbe nori aug-pc-4 grid7 nofinalgrid verytightscf
|  2>
|  3> %maxcore 1500
|  4>
|  5> %pal nprocs 1 end
|  6>
|  7> %scf
|  8> 	maxiter 200
|  9> end
| 10> %elprop
| 11> 	dipole true
| 12> 	 polar 1
| 13> 	 maxiter 200
| 14> end
| 15>
| 16> * xyz 0 1
| 17> Al 0.0000 0.0000 0.0000
| 18> F 0.0000 0.0000 1.6544
| 19> *
| 20>
| 21>                          ****END OF INPUT****

CARTESIAN COORDINATES (ANGSTROEM)
---------------------------------
  Al     0.000000    0.000000    0.000000
  F      0.000000    0.000000    1.654400

 Total Charge           Charge          ....    0
 Multiplicity           Mult            ....    1
 Number of Electrons    NEL             ....   22
 Basis Dimension        Dim             ....  286

ORBITAL ENERGIES
----------------
                 SPIN UP ORBITALS
  NO   OCC          E(Eh)            E(eV)
   0   1.0000     -55.376867     -1506.8812
   1   1.0000     -24.217868      -659.0017
   2   1.0000      -3.943617      -107.3113
   3   1.0000      -2.547220       -69.3134
   4   1.0000      -2.547220       -69.3134
   5   1.0000      -2.541639       -69.1615
   6   1.0000      -1.041531       -28.3415
   7   1.0000      -0.399456       -10.8698
   8   1.0000      -0.350211        -9.5297
   9   1.0000      -0.350211        -9.5297
  10   1.0000      -0.228014        -6.2046
  11   0.0000      -0.076609        -2.0846
  12   0.0000      -0.076609        -2.0846
  13   0.0000      -0.018718        -0.5093
  14   0.0000      -0.000596        -0.0162
  15   0.0000       0.013038         0.3548

                 SPIN DOWN ORBITALS
  NO   OCC          E(Eh)            E(eV)
   0   1.0000     -55.376867     -1506.8812
   1   1.0000     -24.217868      -659.0017
   2   1.0000      -3.943617      -107.3113
   3   1.0000      -2.547220       -69.3134
   4   1.0000      -2.547220       -69.3134
   5   1.0000      -2.541639       -69.1615
   6   1.0000      -1.041531       -28.3415
   7   1.0000      -0.399456       -10.8698
   8   1.0000      -0.350211        -9.5297
   9   1.0000      -0.350211        -9.5297
  10   1.0000      -0.228014        -6.2046
  11   0.0000      -0.076609        -2.0846
  12   0.0000      -0.076609        -2.0846
  13   0.0000      -0.018718        -0.5093
  14   0.0000      -0.000596        -0.0162
  15   0.0000       0.013038         0.3548

MULLIKEN ATOMIC CHARGES AND SPIN POPULATIONS
--------------------------------------------
   0 Al:    0.388388    0.000000
   1 F :   -0.388388   -0.000000
Sum of atomic charges         :   -0.0000000

LOEWDIN ATOMIC CHARGES AND SPIN POPULATIONS
-------------------------------------------
   0 Al:    0.582179    0.000000
   1 F :   -0.582179   -0.000000

  Mayer bond orders larger than 0.1
B(  0-Al,  1-F ) :   0.9901

FINAL SINGLE POINT ENERGY      -342.172206988732

DIPOLE MOMENT
-------------
                                X             Y             Z
Electronic contribution:     -0.00000       0.00000      -0.25934
Nuclear contribution   :      0.00000       0.00000      -0.28122
                        -----------------------------------------
Total Dipole Moment    :     -0.00000       0.00000      -0.54057
                        -----------------------------------------
Magnitude (a.u.)       :      0.54057
Magnitude (Debye)      :      1.37401

Rotational constants in cm-1:     0.000000     0.552462     0.552462
Rotational constants in MHz :     0.000000 16562.409063 16562.409063

                             ****ORCA TERMINATED NORMALLY****
TOTAL RUN TIME: 0 days 0 hours 49 minutes 52 seconds 971 msec
