                         Program Version 4.1.2  - RELEASE  -
|  1> !uks pbe nori aug-pc-4 grid7 nofinalgrid verytightscf
|  2>
|  3> %maxcore 1500
|  4>
|  5> %pal nprocs 1 end
|  6>
|  7> %scf
|  8> 	maxiter 200
|  9> end
| 10> %elprop
| 11> 	dipole true
| 12> 	 polar 1
| 13> 	 maxiter 200
| 14> end
| 15>
| 16> * xyz 0 1
| 17> Ar 0.0 0.0 0.0
| 18> *
| 19>
| 20>                          ****END OF INPUT****

CARTESIAN COORDINATES (ANGSTROEM)
---------------------------------
  Ar     0.000000    0.000000    0.000000

 Total Charge           Charge          ....    0
 Multiplicity           Mult            ....    1
 Number of Electrons    NEL             ....   18
 Basis Dimension        Dim             ....  141

ORBITAL ENERGIES
----------------
                 SPIN UP ORBITALS
  NO   OCC          E(Eh)            E(eV)
   0   1.0000    -114.156144     -3106.3466
   1   1.0000     -10.830190      -294.7045
   2   1.0000      -8.442490      -229.7318
   3   1.0000      -8.442490      -229.7318
   4   1.0000      -8.442490      -229.7318
   5   1.0000      -0.884216       -24.0607
   6   1.0000      -0.377996       -10.2858
   7   1.0000      -0.377996       -10.2858
   8   1.0000      -0.377996       -10.2858
   9   0.0000       0.008920         0.2427
  10   0.0000       0.035368         0.9624
  11   0.0000       0.035368         0.9624
  12   0.0000       0.035368         0.9624
  13   0.0000       0.138438         3.7671

                 SPIN DOWN ORBITALS
  NO   OCC          E(Eh)            E(eV)
   0   1.0000    -114.156144     -3106.3466
   1   1.0000     -10.830190      -294.7045
   2   1.0000      -8.442490      -229.7318
   3   1.0000      -8.442490      -229.7318
   4   1.0000      -8.442490      -229.7318
   5   1.0000      -0.884216       -24.0607
   6   1.0000      -0.377996       -10.2858
   7   1.0000      -0.377996       -10.2858
   8   1.0000      -0.377996       -10.2858
   9   0.0000       0.008920         0.2427
  10   0.0000       0.035368         0.9624
  11   0.0000       0.035368         0.9624
  12   0.0000       0.035368         0.9624
  13   0.0000       0.138438         3.7671

MULLIKEN ATOMIC CHARGES AND SPIN POPULATIONS
--------------------------------------------
   0 Ar:    0.000000    0.000000
Sum of atomic charges         :    0.0000000

LOEWDIN ATOMIC CHARGES AND SPIN POPULATIONS
-------------------------------------------
   0 Ar:    0.000000    0.000000

FINAL SINGLE POINT ENERGY      -527.345981803205

DIPOLE MOMENT
-------------
                                X             Y             Z
Electronic contribution:     -0.00000      -0.00000      -0.00000
Nuclear contribution   :      0.00000       0.00000       0.00000
                        -----------------------------------------
Total Dipole Moment    :     -0.00000      -0.00000      -0.00000
                        -----------------------------------------
Magnitude (a.u.)       :      0.00000
Magnitude (Debye)      :      0.00000

Rotational constants in cm-1:     0.000000     0.000000     0.000000
Rotational constants in MHz :     0.000000     0.000000     0.000000

                             ****ORCA TERMINATED NORMALLY****
TOTAL RUN TIME: 0 days 0 hours 1 minutes 8 seconds 306 msec
