                         Program Version 4.1.2  - RELEASE  -
|  1> !uks pbe nori aug-pc-4 grid7 nofinalgrid verytightscf
|  2>
|  3> %maxcore 1500
|  4>
|  5> %pal nprocs 1 end
|  6>
|  7> %scf
|  8> 	maxiter 200
|  9> end
| 10> %elprop
| 11> 	dipole true
| 12> 	 polar 1
| 13> 	 maxiter 200
| 14> end
| 15>
| 16> * xyz 0 1
| 17> Be 0.0000 0.0000 0.0000
| 18> H 0.0000 0.0000 1.3264
| 19> H 0.0000 0.0000 -1.3264
| 20> *
| 21>
| 22>                          ****END OF INPUT****

CARTESIAN COORDINATES (ANGSTROEM)
---------------------------------
  Be     0.000000    0.000000    0.000000
  H      0.000000    0.000000    1.326400
  H      0.000000    0.000000   -1.326400

 Total Charge           Charge          ....    0
 Multiplicity           Mult            ....    1
 Number of Electrons    NEL             ....    6
 Basis Dimension        Dim             ....  259

ORBITAL ENERGIES
----------------
                 SPIN UP ORBITALS
  NO   OCC          E(Eh)            E(eV)
   0   1.0000      -3.847401      -104.6931
   1   1.0000      -0.309325        -8.4172
   2   1.0000      -0.275337        -7.4923
   3   0.0000      -0.059926        -1.6307
   4   0.0000      -0.059926        -1.6307
   5   0.0000      -0.000011        -0.0003
   6   0.0000       0.013100         0.3565
   7   0.0000       0.025438         0.6922

                 SPIN DOWN ORBITALS
  NO   OCC          E(Eh)            E(eV)
   0   1.0000      -3.847401      -104.6931
   1   1.0000      -0.309325        -8.4172
   2   1.0000      -0.275337        -7.4923
   3   0.0000      -0.059926        -1.6307
   4   0.0000      -0.059926        -1.6307
   5   0.0000      -0.000011        -0.0003
   6   0.0000       0.013100         0.3565
   7   0.0000       0.025438         0.6922

MULLIKEN ATOMIC CHARGES AND SPIN POPULATIONS
--------------------------------------------
   0 Be:    0.522571    0.000000
   1 H :   -0.261263   -0.000000
   2 H :   -0.261308   -0.000000
Sum of atomic charges         :    0.0000000

LOEWDIN ATOMIC CHARGES AND SPIN POPULATIONS
-------------------------------------------
   0 Be:    0.534971    0.000000
   1 H :   -0.267485   -0.000000
   2 H :   -0.267485    0.000000

  Mayer bond orders larger than 0.1
B(  0-Be,  1-H ) :   0.8961 B(  0-Be,  2-H ) :   0.8962

FINAL SINGLE POINT ENERGY       -15.865668108909

DIPOLE MOMENT
-------------
                                X             Y             Z
Electronic contribution:      0.00000      -0.00000       0.00000
Nuclear contribution   :      0.00000       0.00000       0.00000
                        -----------------------------------------
Total Dipole Moment    :      0.00000      -0.00000       0.00000
                        -----------------------------------------
Magnitude (a.u.)       :      0.00000
Magnitude (Debye)      :      0.00000

Rotational constants in cm-1:     0.000000     4.752885     4.752885
Rotational constants in MHz :     0.000000 142487.920971 142487.920971

                             ****ORCA TERMINATED NORMALLY****
TOTAL RUN TIME: 0 days 0 hours 12 minutes 55 seconds 649 msec
