                         Program Version 4.1.2  - RELEASE  -
|  1> !uks pbe nori aug-pc-4 grid7 nofinalgrid verytightscf
|  2>
|  3> %maxcore 1500
|  4>
|  5> %pal nprocs 1 end
|  6>
|  7> %scf
|  8> 	maxiter 200
|  9> end
| 10> %elprop
| 11> 	dipole true
| 12> 	 polar 1
| 13> 	 maxiter 200
| 14> end
| 15>
| 16> * xyz 0 2
| 17> H 0 0 0
| 18> Be 0 0 1.3426
| 19> *
| 20>
| 21>                          ****END OF INPUT****

CARTESIAN COORDINATES (ANGSTROEM)
---------------------------------
  H      0.000000    0.000000    0.000000
  Be     0.000000    0.000000    1.342600

 Total Charge           Charge          ....    0
 Multiplicity           Mult            ....    2
 Number of Electrons    NEL             ....    5
 Basis Dimension        Dim             ....  171

ORBITAL ENERGIES
----------------
                 SPIN UP ORBITALS
  NO   OCC          E(Eh)            E(eV)
   0   1.0000      -3.886246      -105.7501
   1   1.0000      -0.306034        -8.3276
   2   1.0000      -0.172782        -4.7016
   3   0.0000      -0.080272        -2.1843
   4   0.0000      -0.080272        -2.1843
   5   0.0000      -0.003643        -0.0991
   6   0.0000       0.010696         0.2911
   7   0.0000       0.018786         0.5112

                 SPIN DOWN ORBITALS
  NO   OCC          E(Eh)            E(eV)
   0   1.0000      -3.877267      -105.5058
   1   1.0000      -0.294946        -8.0259
   2   0.0000      -0.088399        -2.4054
   3   0.0000      -0.050536        -1.3752
   4   0.0000      -0.050536        -1.3752
   5   0.0000       0.005788         0.1575
   6   0.0000       0.024899         0.6775

MULLIKEN ATOMIC CHARGES AND SPIN POPULATIONS
--------------------------------------------
   0 H :   -0.170271    0.098068
   1 Be:    0.170271    0.901932
Sum of atomic charges         :   -0.0000000

LOEWDIN ATOMIC CHARGES AND SPIN POPULATIONS
-------------------------------------------
   0 H :   -0.400784    0.258004
   1 Be:    0.400784    0.741996

  Mayer bond orders larger than 0.1
B(  0-H ,  1-Be) :   0.9127

FINAL SINGLE POINT ENERGY       -15.218463123402

DIPOLE MOMENT
-------------
                                X             Y             Z
Electronic contribution:     -0.00000      -0.00000       1.35677
Nuclear contribution   :      0.00000       0.00000      -1.26098
                        -----------------------------------------
Total Dipole Moment    :     -0.00000      -0.00000       0.09579
                        -----------------------------------------
Magnitude (a.u.)       :      0.09579
Magnitude (Debye)      :      0.24349

Rotational constants in cm-1:     0.000000    10.315484    10.315484
Rotational constants in MHz :     0.000000 309250.438866 309250.438866

                             ****ORCA TERMINATED NORMALLY****
TOTAL RUN TIME: 0 days 0 hours 3 minutes 39 seconds 416 msec
