                         Program Version 4.1.2  - RELEASE  -
|  1> !uks pbe nori aug-pc-4 grid7 nofinalgrid verytightscf
|  2>
|  3> %maxcore 1500
|  4>
|  5> %pal nprocs 1 end
|  6>
|  7> %scf
|  8> 	maxiter 200
|  9> end
| 10> %elprop
| 11> 	dipole true
| 12> 	 polar 1
| 13> 	 maxiter 200
| 14> end
| 15>
| 16> * xyz 0 1
| 17> B 0.0000 0.0000 0.0000
| 18> F 0.0000 0.0000 1.2669
| 19> *
| 20>
| 21>                          ****END OF INPUT****

CARTESIAN COORDINATES (ANGSTROEM)
---------------------------------
  B      0.000000    0.000000    0.000000
  F      0.000000    0.000000    1.266900

 Total Charge           Charge          ....    0
 Multiplicity           Mult            ....    1
 Number of Electrons    NEL             ....   14
 Basis Dimension        Dim             ....  290

ORBITAL ENERGIES
----------------
                 SPIN UP ORBITALS
  NO   OCC          E(Eh)            E(eV)
   0   1.0000     -24.346400      -662.4992
   1   1.0000      -6.615308      -180.0117
   2   1.0000      -1.198232       -32.6056
   3   1.0000      -0.559028       -15.2119
   4   1.0000      -0.474171       -12.9028
   5   1.0000      -0.474171       -12.9028
   6   1.0000      -0.249607        -6.7922
   7   0.0000      -0.079393        -2.1604
   8   0.0000      -0.079393        -2.1604
   9   0.0000      -0.004320        -0.1176
  10   0.0000       0.013778         0.3749
  11   0.0000       0.015025         0.4089

                 SPIN DOWN ORBITALS
  NO   OCC          E(Eh)            E(eV)
   0   1.0000     -24.346400      -662.4992
   1   1.0000      -6.615308      -180.0117
   2   1.0000      -1.198232       -32.6056
   3   1.0000      -0.559028       -15.2119
   4   1.0000      -0.474171       -12.9028
   5   1.0000      -0.474171       -12.9028
   6   1.0000      -0.249607        -6.7922
   7   0.0000      -0.079393        -2.1604
   8   0.0000      -0.079393        -2.1604
   9   0.0000      -0.004320        -0.1176
  10   0.0000       0.013778         0.3749
  11   0.0000       0.015025         0.4089

MULLIKEN ATOMIC CHARGES AND SPIN POPULATIONS
--------------------------------------------
   0 B :    0.250019    0.000000
   1 F :   -0.250019   -0.000000
Sum of atomic charges         :    0.0000000

LOEWDIN ATOMIC CHARGES AND SPIN POPULATIONS
-------------------------------------------
   0 B :   -0.180293    0.000000
   1 F :    0.180293   -0.000000

  Mayer bond orders larger than 0.1
B(  0-B ,  1-F ) :   1.6237

FINAL SINGLE POINT ENERGY      -124.586262913201

DIPOLE MOMENT
-------------
                                X             Y             Z
Electronic contribution:     -0.00000      -0.00000       0.22777
Nuclear contribution   :      0.00000       0.00000       0.18473
                        -----------------------------------------
Total Dipole Moment    :     -0.00000      -0.00000       0.41250
                        -----------------------------------------
Magnitude (a.u.)       :      0.41250
Magnitude (Debye)      :      1.04849

Rotational constants in cm-1:     0.000000     1.524444     1.524444
Rotational constants in MHz :     0.000000 45701.682824 45701.682824

                             ****ORCA TERMINATED NORMALLY****
TOTAL RUN TIME: 0 days 0 hours 34 minutes 59 seconds 352 msec
