                         Program Version 4.1.2  - RELEASE  -
|  1> !uks pbe nori aug-pc-4 grid7 nofinalgrid verytightscf
|  2>
|  3> %maxcore 1500
|  4>
|  5> %pal nprocs 1 end
|  6>
|  7> %scf
|  8> 	maxiter 200
|  9> end
| 10> %elprop
| 11> 	dipole true
| 12> 	 polar 1
| 13> 	 maxiter 200
| 14> end
| 15>
| 16> * xyz 0 1
| 17> B 0.0000000000 0.0000000000 0.0000000000
| 18> F 0.0000000000 0.0000000000 1.3157000000
| 19> H 0.0000000000 1.0599000000 -0.5569000000
| 20> H 0.0000000000 -1.0599000000 -0.5569000000
| 21> *
| 22>
| 23>                          ****END OF INPUT****

CARTESIAN COORDINATES (ANGSTROEM)
---------------------------------
  B      0.000000    0.000000    0.000000
  F      0.000000    0.000000    1.315700
  H      0.000000    1.059900   -0.556900
  H      0.000000   -1.059900   -0.556900

 Total Charge           Charge          ....    0
 Multiplicity           Mult            ....    1
 Number of Electrons    NEL             ....   16
 Basis Dimension        Dim             ....  466

ORBITAL ENERGIES
----------------
                 SPIN UP ORBITALS
  NO   OCC          E(Eh)            E(eV)
   0   1.0000     -24.279406      -660.6762
   1   1.0000      -6.567079      -178.6993
   2   1.0000      -1.127651       -30.6849
   3   1.0000      -0.510417       -13.8892
   4   1.0000      -0.426178       -11.5969
   5   1.0000      -0.416029       -11.3207
   6   1.0000      -0.403063       -10.9679
   7   1.0000      -0.285784        -7.7766
   8   0.0000      -0.084092        -2.2883
   9   0.0000      -0.005517        -0.1501
  10   0.0000       0.006241         0.1698
  11   0.0000       0.011173         0.3040
  12   0.0000       0.016517         0.4494

                 SPIN DOWN ORBITALS
  NO   OCC          E(Eh)            E(eV)
   0   1.0000     -24.279406      -660.6762
   1   1.0000      -6.567079      -178.6993
   2   1.0000      -1.127651       -30.6849
   3   1.0000      -0.510417       -13.8892
   4   1.0000      -0.426178       -11.5969
   5   1.0000      -0.416029       -11.3207
   6   1.0000      -0.403063       -10.9679
   7   1.0000      -0.285784        -7.7766
   8   0.0000      -0.084092        -2.2883
   9   0.0000      -0.005517        -0.1501
  10   0.0000       0.006241         0.1698
  11   0.0000       0.011173         0.3040
  12   0.0000       0.016517         0.4494

MULLIKEN ATOMIC CHARGES AND SPIN POPULATIONS
--------------------------------------------
   0 B :    0.278916    0.000000
   1 F :   -0.288971   -0.000000
   2 H :    0.004998   -0.000000
   3 H :    0.005058    0.000000
Sum of atomic charges         :    0.0000000

LOEWDIN ATOMIC CHARGES AND SPIN POPULATIONS
-------------------------------------------
   0 B :    0.199435    0.000000
   1 F :    0.448809   -0.000000
   2 H :   -0.324122    0.000000
   3 H :   -0.324122   -0.000000

  Mayer bond orders larger than 0.1
B(  0-B ,  1-F ) :   1.2731 B(  0-B ,  2-H ) :   0.9035 B(  0-B ,  3-H ) :   0.9034

FINAL SINGLE POINT ENERGY      -125.841501117846

DIPOLE MOMENT
-------------
                                X             Y             Z
Electronic contribution:     -0.00000       0.00000       2.16867
Nuclear contribution   :      0.00000       0.00000      -2.40939
                        -----------------------------------------
Total Dipole Moment    :     -0.00000       0.00000      -0.24072
                        -----------------------------------------
Magnitude (a.u.)       :      0.24072
Magnitude (Debye)      :      0.61186

Rotational constants in cm-1:     7.443490     1.080369     0.943436
Rotational constants in MHz : 223150.205883 32388.645097 28283.498944

                             ****ORCA TERMINATED NORMALLY****
TOTAL RUN TIME: 0 days 2 hours 47 minutes 49 seconds 530 msec
