                         Program Version 4.1.2  - RELEASE  -
|  1> !uks pbe nori aug-pc-4 grid7 nofinalgrid verytightscf
|  2>
|  3> %maxcore 1500
|  4>
|  5> %pal nprocs 1 end
|  6>
|  7> %scf
|  8> 	maxiter 200
|  9> end
| 10> %elprop
| 11> 	dipole true
| 12> 	 polar 1
| 13> 	 maxiter 200
| 14> end
| 15>
| 16> * xyz 0 1
| 17> B 0.0000 0.0000 0.0000
| 18> H 0.0000 1.1900 0.0000
| 19> H 1.0306 -0.5950 0.0000
| 20> H -1.0306 -0.5950 0.0000
| 21> *
| 22>
| 23>                          ****END OF INPUT****

CARTESIAN COORDINATES (ANGSTROEM)
---------------------------------
  B      0.000000    0.000000    0.000000
  H      0.000000    1.190000    0.000000
  H      1.030600   -0.595000    0.000000
  H     -1.030600   -0.595000    0.000000

 Total Charge           Charge          ....    0
 Multiplicity           Mult            ....    1
 Number of Electrons    NEL             ....    8
 Basis Dimension        Dim             ....  409

ORBITAL ENERGIES
----------------
                 SPIN UP ORBITALS
  NO   OCC          E(Eh)            E(eV)
   0   1.0000      -6.526048      -177.5828
   1   1.0000      -0.463376       -12.6091
   2   1.0000      -0.312019        -8.4905
   3   1.0000      -0.312019        -8.4905
   4   0.0000      -0.112709        -3.0670
   5   0.0000      -0.004830        -0.1314
   6   0.0000       0.011976         0.3259
   7   0.0000       0.011976         0.3259
   8   0.0000       0.016987         0.4622

                 SPIN DOWN ORBITALS
  NO   OCC          E(Eh)            E(eV)
   0   1.0000      -6.526048      -177.5828
   1   1.0000      -0.463376       -12.6091
   2   1.0000      -0.312019        -8.4905
   3   1.0000      -0.312019        -8.4905
   4   0.0000      -0.112709        -3.0670
   5   0.0000      -0.004830        -0.1314
   6   0.0000       0.011976         0.3259
   7   0.0000       0.011976         0.3259
   8   0.0000       0.016987         0.4622

MULLIKEN ATOMIC CHARGES AND SPIN POPULATIONS
--------------------------------------------
   0 B :   -0.155187    0.000000
   1 H :    0.051679    0.000000
   2 H :    0.051744   -0.000000
   3 H :    0.051764   -0.000000
Sum of atomic charges         :    0.0000000

LOEWDIN ATOMIC CHARGES AND SPIN POPULATIONS
-------------------------------------------
   0 B :    0.849157    0.000000
   1 H :   -0.283062    0.000000
   2 H :   -0.283048   -0.000000
   3 H :   -0.283048   -0.000000

  Mayer bond orders larger than 0.1
B(  0-B ,  1-H ) :   0.9168 B(  0-B ,  2-H ) :   0.9167 B(  0-B ,  3-H ) :   0.9167

FINAL SINGLE POINT ENERGY       -26.555884471640

DIPOLE MOMENT
-------------
                                X             Y             Z
Electronic contribution:     -0.00000       0.00001      -0.00000
Nuclear contribution   :      0.00000       0.00000       0.00000
                        -----------------------------------------
Total Dipole Moment    :     -0.00000       0.00001      -0.00000
                        -----------------------------------------
Magnitude (a.u.)       :      0.00001
Magnitude (Debye)      :      0.00002

Rotational constants in cm-1:     7.873198     7.872743     3.936485
Rotational constants in MHz : 236032.545459 236018.909774 118012.863710

                             ****ORCA TERMINATED NORMALLY****
TOTAL RUN TIME: 0 days 1 hours 13 minutes 46 seconds 774 msec
