                         Program Version 4.1.2  - RELEASE  -
|  1> !uks pbe nori aug-pc-4 grid7 nofinalgrid verytightscf
|  2>
|  3> %maxcore 1500
|  4>
|  5> %pal nprocs 4 end
|  6>
|  7> %scf
|  8> 	maxiter 200
|  9> end
| 10> %elprop
| 11> 	dipole true
| 12> 	 polar 1
| 13> 	 maxiter 200
| 14> end
| 15>
| 16> * xyz 0 1
| 17> B 0.0000 0.0000 0.4547
| 18> H 0.0000 0.0000 1.6437
| 19> F 0.0000 1.1255 -0.2176
| 20> F 0.0000 -1.1255 -0.2176
| 21> *
| 22>
| 23>                          ****END OF INPUT****

CARTESIAN COORDINATES (ANGSTROEM)
---------------------------------
  B      0.000000    0.000000    0.454700
  H      0.000000    0.000000    1.643700
  F      0.000000    1.125500   -0.217600
  F      0.000000   -1.125500   -0.217600

 Total Charge           Charge          ....    0
 Multiplicity           Mult            ....    1
 Number of Electrons    NEL             ....   24
 Basis Dimension        Dim             ....  523

ORBITAL ENERGIES
----------------
                 SPIN UP ORBITALS
  NO   OCC          E(Eh)            E(eV)
   0   1.0000     -24.284510      -660.8151
   1   1.0000     -24.284510      -660.8151
   2   1.0000      -6.609241      -179.8466
   3   1.0000      -1.151052       -31.3217
   4   1.0000      -1.123420       -30.5698
   5   1.0000      -0.530992       -14.4490
   6   1.0000      -0.485701       -13.2166
   7   1.0000      -0.462935       -12.5971
   8   1.0000      -0.446750       -12.1567
   9   1.0000      -0.394985       -10.7481
  10   1.0000      -0.374937       -10.2026
  11   1.0000      -0.336021        -9.1436
  12   0.0000      -0.053914        -1.4671
  13   0.0000      -0.008669        -0.2359
  14   0.0000       0.007129         0.1940
  15   0.0000       0.009611         0.2615
  16   0.0000       0.015920         0.4332

                 SPIN DOWN ORBITALS
  NO   OCC          E(Eh)            E(eV)
   0   1.0000     -24.284510      -660.8151
   1   1.0000     -24.284510      -660.8151
   2   1.0000      -6.609241      -179.8466
   3   1.0000      -1.151052       -31.3217
   4   1.0000      -1.123420       -30.5698
   5   1.0000      -0.530992       -14.4490
   6   1.0000      -0.485701       -13.2166
   7   1.0000      -0.462935       -12.5971
   8   1.0000      -0.446750       -12.1567
   9   1.0000      -0.394985       -10.7481
  10   1.0000      -0.374937       -10.2026
  11   1.0000      -0.336021        -9.1436
  12   0.0000      -0.053914        -1.4671
  13   0.0000      -0.008669        -0.2359
  14   0.0000       0.007129         0.1940
  15   0.0000       0.009611         0.2615
  16   0.0000       0.015920         0.4332

MULLIKEN ATOMIC CHARGES AND SPIN POPULATIONS
--------------------------------------------
   0 B :    0.394208   -0.000000
   1 H :    0.070695   -0.000000
   2 F :   -0.232454    0.000000
   3 F :   -0.232449    0.000000
Sum of atomic charges         :   -0.0000000

LOEWDIN ATOMIC CHARGES AND SPIN POPULATIONS
-------------------------------------------
   0 B :   -0.397600   -0.000000
   1 H :   -0.363104   -0.000000
   2 F :    0.380352    0.000000
   3 F :    0.380352    0.000000

  Mayer bond orders larger than 0.1
B(  0-B ,  1-H ) :   0.9447 B(  0-B ,  2-F ) :   1.2562 B(  0-B ,  3-F ) :   1.2562

FINAL SINGLE POINT ENERGY      -225.130677541444

DIPOLE MOMENT
-------------
                                X             Y             Z
Electronic contribution:      0.00000       0.00000      -1.23980
Nuclear contribution   :      0.00000       0.00000       1.54468
                        -----------------------------------------
Total Dipole Moment    :      0.00000       0.00000       0.30488
                        -----------------------------------------
Magnitude (a.u.)       :      0.30488
Magnitude (Debye)      :      0.77494

Rotational constants in cm-1:     2.516169     0.350242     0.307446
Rotational constants in MHz : 75432.840017 10499.986151  9217.010668

                             ****ORCA TERMINATED NORMALLY****
TOTAL RUN TIME: 0 days 1 hours 9 minutes 21 seconds 171 msec
