                         Program Version 4.1.2  - RELEASE  -
|  1> !uks pbe nori aug-pc-4 grid7 nofinalgrid verytightscf
|  2>
|  3> %maxcore 1500
|  4>
|  5> %pal nprocs 1 end
|  6>
|  7> %scf
|  8> 	maxiter 200
|  9> end
| 10> %elprop
| 11> 	dipole true
| 12> 	 polar 1
| 13> 	 maxiter 200
| 14> end
| 15>
| 16> * xyz 0 3
| 17> B 0.0000 0.0000 0.0000
| 18> N 0.0000 0.0000 1.3250
| 19> *
| 20>
| 21>                          ****END OF INPUT****

CARTESIAN COORDINATES (ANGSTROEM)
---------------------------------
  B      0.000000    0.000000    0.000000
  N      0.000000    0.000000    1.325000

 Total Charge           Charge          ....    0
 Multiplicity           Mult            ....    3
 Number of Electrons    NEL             ....   12
 Basis Dimension        Dim             ....  290

ORBITAL ENERGIES
----------------
                 SPIN UP ORBITALS
  NO   OCC          E(Eh)            E(eV)
   0   1.0000     -14.042738      -382.1223
   1   1.0000      -6.604804      -179.7258
   2   1.0000      -0.772799       -21.0289
   3   1.0000      -0.363933        -9.9031
   4   1.0000      -0.334793        -9.1102
   5   1.0000      -0.290321        -7.9000
   6   1.0000      -0.283348        -7.7103
   7   0.0000      -0.082244        -2.2380
   8   0.0000      -0.058376        -1.5885
   9   0.0000      -0.004455        -0.1212
  10   0.0000       0.008304         0.2260
  11   0.0000       0.012433         0.3383

                 SPIN DOWN ORBITALS
  NO   OCC          E(Eh)            E(eV)
   0   1.0000     -14.026626      -381.6839
   1   1.0000      -6.589418      -179.3072
   2   1.0000      -0.722040       -19.6477
   3   1.0000      -0.317857        -8.6493
   4   1.0000      -0.272381        -7.4119
   5   0.0000      -0.247518        -6.7353
   6   0.0000      -0.189610        -5.1595
   7   0.0000      -0.023066        -0.6277
   8   0.0000      -0.007215        -0.1963
   9   0.0000       0.008859         0.2411

MULLIKEN ATOMIC CHARGES AND SPIN POPULATIONS
--------------------------------------------
   0 B :    0.044110    1.140670
   1 N :   -0.044110    0.859330
Sum of atomic charges         :   -0.0000000

LOEWDIN ATOMIC CHARGES AND SPIN POPULATIONS
-------------------------------------------
   0 B :   -0.012508    1.034433
   1 N :    0.012508    0.965567

  Mayer bond orders larger than 0.1
B(  0-B ,  1-N ) :   2.2943

FINAL SINGLE POINT ENERGY       -79.343747009969

DIPOLE MOMENT
-------------
                                X             Y             Z
Electronic contribution:      0.00000      -0.00000      -1.31212
Nuclear contribution   :      0.00000       0.00000       0.56854
                        -----------------------------------------
Total Dipole Moment    :      0.00000      -0.00000      -0.74358
                        -----------------------------------------
Magnitude (a.u.)       :      0.74358
Magnitude (Debye)      :      1.89002

Rotational constants in cm-1:     0.000000     1.573778     1.573778
Rotational constants in MHz :     0.000000 47180.691902 47180.691902

                             ****ORCA TERMINATED NORMALLY****
TOTAL RUN TIME: 0 days 0 hours 48 minutes 37 seconds 315 msec
