                         Program Version 4.1.2  - RELEASE  -
|  1> !uks pbe nori aug-pc-4 grid7 nofinalgrid verytightscf
|  2>
|  3> %maxcore 1500
|  4>
|  5> %pal nprocs 1 end
|  6>
|  7> %scf
|  8> 	maxiter 200
|  9> end
| 10> %elprop
| 11> 	dipole true
| 12> 	 polar 1
| 13> 	 maxiter 200
| 14> end
| 15>
| 16> * xyz 0 2
| 17> B 0.0000 0.0000 0.0000
| 18> O 0.0000 0.0000 1.2045
| 19> *
| 20>
| 21>                          ****END OF INPUT****

CARTESIAN COORDINATES (ANGSTROEM)
---------------------------------
  B      0.000000    0.000000    0.000000
  O      0.000000    0.000000    1.204500

 Total Charge           Charge          ....    0
 Multiplicity           Mult            ....    2
 Number of Electrons    NEL             ....   13
 Basis Dimension        Dim             ....  290

ORBITAL ENERGIES
----------------
                 SPIN UP ORBITALS
  NO   OCC          E(Eh)            E(eV)
   0   1.0000     -18.772631      -510.8293
   1   1.0000      -6.594233      -179.4382
   2   1.0000      -0.919959       -25.0334
   3   1.0000      -0.397285       -10.8107
   4   1.0000      -0.338338        -9.2066
   5   1.0000      -0.338338        -9.2066
   6   1.0000      -0.306322        -8.3354
   7   0.0000      -0.059028        -1.6062
   8   0.0000      -0.059028        -1.6062
   9   0.0000      -0.002613        -0.0711
  10   0.0000       0.010113         0.2752
  11   0.0000       0.015639         0.4256

                 SPIN DOWN ORBITALS
  NO   OCC          E(Eh)            E(eV)
   0   1.0000     -18.773144      -510.8432
   1   1.0000      -6.579334      -179.0328
   2   1.0000      -0.918381       -24.9904
   3   1.0000      -0.385321       -10.4851
   4   1.0000      -0.335275        -9.1233
   5   1.0000      -0.335275        -9.1233
   6   0.0000      -0.200612        -5.4589
   7   0.0000      -0.017355        -0.4723
   8   0.0000      -0.017355        -0.4723
   9   0.0000       0.011976         0.3259
  10   0.0000       0.015299         0.4163

MULLIKEN ATOMIC CHARGES AND SPIN POPULATIONS
--------------------------------------------
   0 B :    0.392917    0.951294
   1 O :   -0.392917    0.048706
Sum of atomic charges         :   -0.0000000

LOEWDIN ATOMIC CHARGES AND SPIN POPULATIONS
-------------------------------------------
   0 B :   -0.161423    0.763570
   1 O :    0.161423    0.236430

  Mayer bond orders larger than 0.1
B(  0-B ,  1-O ) :   2.4573

FINAL SINGLE POINT ENERGY       -99.958083093861

DIPOLE MOMENT
-------------
                                X             Y             Z
Electronic contribution:     -0.00000      -0.00000      -1.40976
Nuclear contribution   :      0.00000       0.00000       0.55060
                        -----------------------------------------
Total Dipole Moment    :     -0.00000      -0.00000      -0.85917
                        -----------------------------------------
Magnitude (a.u.)       :      0.85917
Magnitude (Debye)      :      2.18383

Rotational constants in cm-1:     0.000000     1.801131     1.801131
Rotational constants in MHz :     0.000000 53996.558117 53996.558117

                             ****ORCA TERMINATED NORMALLY****
TOTAL RUN TIME: 0 days 0 hours 42 minutes 35 seconds 113 msec
