                         Program Version 4.1.2  - RELEASE  -
|  1> !uks pbe nori aug-pc-4 grid7 nofinalgrid verytightscf
|  2>
|  3> %maxcore 1500
|  4>
|  5> %pal nprocs 1 end
|  6>
|  7> %scf
|  8> 	maxiter 200
|  9> end
| 10> %elprop
| 11> 	dipole true
| 12> 	 polar 1
| 13> 	 maxiter 200
| 14> end
| 15>
| 16> * xyz 0 2
| 17> B 0.0000 0.0000 0.0000
| 18> S 0.0000 0.0000 1.6092
| 19> *
| 20>
| 21>                          ****END OF INPUT****

CARTESIAN COORDINATES (ANGSTROEM)
---------------------------------
  B      0.000000    0.000000    0.000000
  S      0.000000    0.000000    1.609200

 Total Charge           Charge          ....    0
 Multiplicity           Mult            ....    2
 Number of Electrons    NEL             ....   21
 Basis Dimension        Dim             ....  286

ORBITAL ENERGIES
----------------
                 SPIN UP ORBITALS
  NO   OCC          E(Eh)            E(eV)
   0   1.0000     -88.043829     -2395.7944
   1   1.0000      -7.685437      -209.1314
   2   1.0000      -6.607526      -179.7999
   3   1.0000      -5.703287      -155.1943
   4   1.0000      -5.701258      -155.1391
   5   1.0000      -5.701258      -155.1391
   6   1.0000      -0.677123       -18.4255
   7   1.0000      -0.392640       -10.6843
   8   1.0000      -0.281178        -7.6512
   9   1.0000      -0.281178        -7.6512
  10   1.0000      -0.270240        -7.3536
  11   0.0000      -0.096098        -2.6150
  12   0.0000      -0.096098        -2.6150
  13   0.0000      -0.006384        -0.1737
  14   0.0000       0.004830         0.1314
  15   0.0000       0.010653         0.2899

                 SPIN DOWN ORBITALS
  NO   OCC          E(Eh)            E(eV)
   0   1.0000     -88.043619     -2395.7887
   1   1.0000      -7.685221      -209.1255
   2   1.0000      -6.593685      -179.4233
   3   1.0000      -5.701847      -155.1552
   4   1.0000      -5.701847      -155.1552
   5   1.0000      -5.701239      -155.1386
   6   1.0000      -0.672015       -18.2864
   7   1.0000      -0.375403       -10.2152
   8   1.0000      -0.277275        -7.5450
   9   1.0000      -0.277275        -7.5450
  10   0.0000      -0.173878        -4.7315
  11   0.0000      -0.066528        -1.8103
  12   0.0000      -0.066528        -1.8103
  13   0.0000      -0.000029        -0.0008
  14   0.0000       0.012900         0.3510

MULLIKEN ATOMIC CHARGES AND SPIN POPULATIONS
--------------------------------------------
   0 B :    0.039182    0.973936
   1 S :   -0.039182    0.026064
Sum of atomic charges         :    0.0000000

LOEWDIN ATOMIC CHARGES AND SPIN POPULATIONS
-------------------------------------------
   0 B :   -0.599583    0.820037
   1 S :    0.599583    0.179963

  Mayer bond orders larger than 0.1
B(  0-B ,  1-S ) :   2.3897

FINAL SINGLE POINT ENERGY      -422.794757076838

DIPOLE MOMENT
-------------
                                X             Y             Z
Electronic contribution:      0.00000      -0.00000      -1.15768
Nuclear contribution   :      0.00000       0.00000       0.89803
                        -----------------------------------------
Total Dipole Moment    :      0.00000      -0.00000      -0.25966
                        -----------------------------------------
Magnitude (a.u.)       :      0.25966
Magnitude (Debye)      :      0.66000

Rotational constants in cm-1:     0.000000     0.805269     0.805269
Rotational constants in MHz :     0.000000 24141.365299 24141.365299

                             ****ORCA TERMINATED NORMALLY****
TOTAL RUN TIME: 0 days 0 hours 57 minutes 10 seconds 6 msec
