                         Program Version 4.1.2  - RELEASE  -
|  1> !uks pbe nori aug-pc-4 grid7 nofinalgrid verytightscf
|  2>
|  3> %maxcore 1500
|  4>
|  5> %pal nprocs 1 end
|  6>
|  7> %scf
|  8> 	maxiter 200
|  9> end
| 10> %elprop
| 11> 	dipole true
| 12> 	 polar 1
| 13> 	 maxiter 200
| 14> end
| 15>
| 16> * xyz 0 1
| 17> C 0.0000 0.0000 0.6013
| 18> C 0.0000 0.0000 -0.6013
| 19> H 0.0000 0.0000 1.6644
| 20> H 0.0000 0.0000 -1.6644
| 21> *
| 22>
| 23>                          ****END OF INPUT****

CARTESIAN COORDINATES (ANGSTROEM)
---------------------------------
  C      0.000000    0.000000    0.601300
  C      0.000000    0.000000   -0.601300
  H      0.000000    0.000000    1.664400
  H      0.000000    0.000000   -1.664400

 Total Charge           Charge          ....    0
 Multiplicity           Mult            ....    1
 Number of Electrons    NEL             ....   14
 Basis Dimension        Dim             ....  466

ORBITAL ENERGIES
----------------
                 SPIN UP ORBITALS
  NO   OCC          E(Eh)            E(eV)
   0   1.0000      -9.895193      -269.2619
   1   1.0000      -9.893013      -269.2026
   2   1.0000      -0.683631       -18.6026
   3   1.0000      -0.516591       -14.0571
   4   1.0000      -0.448453       -12.2030
   5   1.0000      -0.264555        -7.1989
   6   1.0000      -0.264555        -7.1989
   7   0.0000      -0.015322        -0.4169
   8   0.0000      -0.015322        -0.4169
   9   0.0000      -0.006588        -0.1793
  10   0.0000       0.002235         0.0608
  11   0.0000       0.018164         0.4943

                 SPIN DOWN ORBITALS
  NO   OCC          E(Eh)            E(eV)
   0   1.0000      -9.895193      -269.2619
   1   1.0000      -9.893013      -269.2026
   2   1.0000      -0.683631       -18.6026
   3   1.0000      -0.516591       -14.0571
   4   1.0000      -0.448453       -12.2030
   5   1.0000      -0.264555        -7.1989
   6   1.0000      -0.264555        -7.1989
   7   0.0000      -0.015322        -0.4169
   8   0.0000      -0.015322        -0.4169
   9   0.0000      -0.006588        -0.1793
  10   0.0000       0.002235         0.0608
  11   0.0000       0.018164         0.4943

MULLIKEN ATOMIC CHARGES AND SPIN POPULATIONS
--------------------------------------------
   0 C :    0.055013   -0.000000
   1 C :    0.054876    0.000000
   2 H :   -0.054887   -0.000000
   3 H :   -0.055002   -0.000000
Sum of atomic charges         :    0.0000000

LOEWDIN ATOMIC CHARGES AND SPIN POPULATIONS
-------------------------------------------
   0 C :    0.517354   -0.000000
   1 C :    0.517354    0.000000
   2 H :   -0.517354    0.000000
   3 H :   -0.517354   -0.000000

  Mayer bond orders larger than 0.1
B(  0-C ,  1-C ) :   2.8893 B(  0-C ,  2-H ) :   1.1000 B(  1-C ,  3-H ) :   1.1001

FINAL SINGLE POINT ENERGY       -77.258870695665

DIPOLE MOMENT
-------------
                                X             Y             Z
Electronic contribution:      0.00000      -0.00000       0.00000
Nuclear contribution   :      0.00000       0.00000       0.00000
                        -----------------------------------------
Total Dipole Moment    :      0.00000      -0.00000       0.00000
                        -----------------------------------------
Magnitude (a.u.)       :      0.00000
Magnitude (Debye)      :      0.00000

Rotational constants in cm-1:     0.000000     1.181317     1.181317
Rotational constants in MHz :     0.000000 35414.991350 35414.991350

                             ****ORCA TERMINATED NORMALLY****
TOTAL RUN TIME: 0 days 2 hours 35 minutes 18 seconds 486 msec
