                         Program Version 4.1.2  - RELEASE  -
|  1> !uks pbe nori aug-pc-4 grid7 nofinalgrid verytightscf
|  2>
|  3> %maxcore 1500
|  4>
|  5> %pal nprocs 4 end
|  6>
|  7> %scf
|  8> 	maxiter 200
|  9> end
| 10> %elprop
| 11> 	dipole true
| 12> 	 polar 1
| 13> 	 maxiter 200
| 14> end
| 15>
| 16> * xyz 0 2
| 17> C 0.0488 0.7245 0.0000
| 18> C 0.0488 -0.5915 0.0000
| 19> H -0.6836 1.5182 0.0000
| 20> H -0.8763 -1.1584 0.0000
| 21> H 0.9739 -1.1584 0.0000
| 22> *
| 23>
| 24>                          ****END OF INPUT****

CARTESIAN COORDINATES (ANGSTROEM)
---------------------------------
  C      0.048800    0.724500    0.000000
  C      0.048800   -0.591500    0.000000
  H     -0.683600    1.518200    0.000000
  H     -0.876300   -1.158400    0.000000
  H      0.973900   -1.158400    0.000000

 Total Charge           Charge          ....    0
 Multiplicity           Mult            ....    2
 Number of Electrons    NEL             ....   15
 Basis Dimension        Dim             ....  554

ORBITAL ENERGIES
----------------
                 SPIN UP ORBITALS
  NO   OCC          E(Eh)            E(eV)
   0   1.0000      -9.918252      -269.8894
   1   1.0000      -9.894918      -269.2544
   2   1.0000      -0.698639       -19.0109
   3   1.0000      -0.523573       -14.2471
   4   1.0000      -0.418927       -11.3996
   5   1.0000      -0.387079       -10.5330
   6   1.0000      -0.259775        -7.0688
   7   1.0000      -0.204078        -5.5533
   8   0.0000      -0.044036        -1.1983
   9   0.0000      -0.013107        -0.3567
  10   0.0000       0.001886         0.0513
  11   0.0000       0.008930         0.2430
  12   0.0000       0.016480         0.4484

                 SPIN DOWN ORBITALS
  NO   OCC          E(Eh)            E(eV)
   0   1.0000      -9.903886      -269.4984
   1   1.0000      -9.896163      -269.2883
   2   1.0000      -0.684447       -18.6248
   3   1.0000      -0.506050       -13.7703
   4   1.0000      -0.406748       -11.0682
   5   1.0000      -0.376109       -10.2345
   6   1.0000      -0.251813        -6.8522
   7   0.0000      -0.115920        -3.1543
   8   0.0000      -0.032892        -0.8950
   9   0.0000      -0.008681        -0.2362
  10   0.0000       0.005931         0.1614
  11   0.0000       0.015441         0.4202

MULLIKEN ATOMIC CHARGES AND SPIN POPULATIONS
--------------------------------------------
   0 C :   -0.076623    0.779901
   1 C :   -0.050484    0.028905
   2 H :    0.092474    0.089454
   3 H :    0.000466    0.070426
   4 H :    0.034168    0.031314
Sum of atomic charges         :   -0.0000000

LOEWDIN ATOMIC CHARGES AND SPIN POPULATIONS
-------------------------------------------
   0 C :    0.718337    0.570214
   1 C :    0.658516    0.152831
   2 H :   -0.463679    0.146557
   3 H :   -0.461055    0.067937
   4 H :   -0.452119    0.062462

  Mayer bond orders larger than 0.1
B(  0-C ,  1-C ) :   2.0339 B(  0-C ,  2-H ) :   0.9951 B(  0-C ,  3-H ) :   0.1173
B(  1-C ,  3-H ) :   0.9911 B(  1-C ,  4-H ) :   0.9824

FINAL SINGLE POINT ENERGY       -77.827429409650

DIPOLE MOMENT
-------------
                                X             Y             Z
Electronic contribution:      0.36732       0.68504      -0.00000
Nuclear contribution   :     -0.61029      -0.83170       0.00000
                        -----------------------------------------
Total Dipole Moment    :     -0.24297      -0.14666      -0.00000
                        -----------------------------------------
Magnitude (a.u.)       :      0.28380
Magnitude (Debye)      :      0.72137

Rotational constants in cm-1:     7.821103     1.080428     0.949290
Rotational constants in MHz : 234470.771346 32390.407658 28459.005900

                             ****ORCA TERMINATED NORMALLY****
TOTAL RUN TIME: 0 days 1 hours 47 minutes 3 seconds 510 msec
