                         Program Version 4.1.2  - RELEASE  -
|  1> !uks pbe nori aug-pc-4 grid7 nofinalgrid verytightscf
|  2>
|  3> %maxcore 1500
|  4>
|  5> %pal nprocs 4 end
|  6>
|  7> %scf
|  8> 	maxiter 200
|  9> end
| 10> %elprop
| 11> 	dipole true
| 12> 	 polar 1
| 13> 	 maxiter 200
| 14> end
| 15>
| 16> * xyz 0 1
| 17> C 0.0000 0.0000 0.6695
| 18> C 0.0000 0.0000 -0.6695
| 19> H 0.0000 0.9289 1.2321
| 20> H 0.0000 -0.9289 1.2321
| 21> H 0.0000 0.9289 -1.2321
| 22> H 0.0000 -0.9289 -1.2321
| 23> *
| 24>
| 25>                          ****END OF INPUT****

CARTESIAN COORDINATES (ANGSTROEM)
---------------------------------
  C      0.000000    0.000000    0.669500
  C      0.000000    0.000000   -0.669500
  H      0.000000    0.928900    1.232100
  H      0.000000   -0.928900    1.232100
  H      0.000000    0.928900   -1.232100
  H      0.000000   -0.928900   -1.232100

 Total Charge           Charge          ....    0
 Multiplicity           Mult            ....    1
 Number of Electrons    NEL             ....   16
 Basis Dimension        Dim             ....  642

ORBITAL ENERGIES
----------------
                 SPIN UP ORBITALS
  NO   OCC          E(Eh)            E(eV)
   0   1.0000      -9.887300      -269.0471
   1   1.0000      -9.886642      -269.0292
   2   1.0000      -0.689753       -18.7691
   3   1.0000      -0.523166       -14.2361
   4   1.0000      -0.422720       -11.5028
   5   1.0000      -0.372323       -10.1314
   6   1.0000      -0.315091        -8.5741
   7   1.0000      -0.247730        -6.7411
   8   0.0000      -0.041226        -1.1218
   9   0.0000      -0.011826        -0.3218
  10   0.0000       0.005144         0.1400
  11   0.0000       0.008008         0.2179
  12   0.0000       0.017196         0.4679

                 SPIN DOWN ORBITALS
  NO   OCC          E(Eh)            E(eV)
   0   1.0000      -9.887300      -269.0471
   1   1.0000      -9.886642      -269.0292
   2   1.0000      -0.689753       -18.7691
   3   1.0000      -0.523166       -14.2361
   4   1.0000      -0.422720       -11.5028
   5   1.0000      -0.372323       -10.1314
   6   1.0000      -0.315091        -8.5741
   7   1.0000      -0.247730        -6.7411
   8   0.0000      -0.041226        -1.1218
   9   0.0000      -0.011826        -0.3218
  10   0.0000       0.005144         0.1400
  11   0.0000       0.008008         0.2179
  12   0.0000       0.017196         0.4679

MULLIKEN ATOMIC CHARGES AND SPIN POPULATIONS
--------------------------------------------
   0 C :   -0.002485   -0.000000
   1 C :   -0.003627    0.000000
   2 H :    0.001237    0.000000
   3 H :    0.001619   -0.000000
   4 H :    0.001653    0.000000
   5 H :    0.001602   -0.000000
Sum of atomic charges         :    0.0000000

LOEWDIN ATOMIC CHARGES AND SPIN POPULATIONS
-------------------------------------------
   0 C :    0.799914    0.000000
   1 C :    0.799914   -0.000000
   2 H :   -0.399957    0.000000
   3 H :   -0.399957   -0.000000
   4 H :   -0.399957    0.000000
   5 H :   -0.399957    0.000000

  Mayer bond orders larger than 0.1
B(  0-C ,  1-C ) :   1.8467 B(  0-C ,  2-H ) :   1.0454 B(  0-C ,  3-H ) :   1.0452
B(  1-C ,  4-H ) :   1.0457 B(  1-C ,  5-H ) :   1.0454

FINAL SINGLE POINT ENERGY       -78.508664940491

DIPOLE MOMENT
-------------
                                X             Y             Z
Electronic contribution:      0.00000       0.00000      -0.00000
Nuclear contribution   :      0.00000       0.00000       0.00000
                        -----------------------------------------
Total Dipole Moment    :      0.00000       0.00000      -0.00000
                        -----------------------------------------
Magnitude (a.u.)       :      0.00000
Magnitude (Debye)      :      0.00000

Rotational constants in cm-1:     4.845498     0.998188     0.827683
Rotational constants in MHz : 145264.386663 29924.922399 24813.303514

                             ****ORCA TERMINATED NORMALLY****
TOTAL RUN TIME: 0 days 2 hours 9 minutes 32 seconds 156 msec
