                         Program Version 4.1.2  - RELEASE  -
|  1> !uks pbe nori aug-pc-4 grid7 nofinalgrid verytightscf
|  2>
|  3> %maxcore 1500
|  4>
|  5> %pal nprocs 1 end
|  6>
|  7> %scf
|  8> 	maxiter 200
|  9> end
| 10> %elprop
| 11> 	dipole true
| 12> 	 polar 1
| 13> 	 maxiter 200
| 14> end
| 15>
| 16> * xyz 0 2
| 17> C 0.0000 0.0000 0.0000
| 18> C 0.0000 0.0000 -1.2165
| 19> H 0.0000 0.0000 1.0465
| 20> *
| 21>
| 22>                          ****END OF INPUT****

CARTESIAN COORDINATES (ANGSTROEM)
---------------------------------
  C      0.000000    0.000000    0.000000
  C      0.000000    0.000000   -1.216500
  H      0.000000    0.000000    1.046500

 Total Charge           Charge          ....    0
 Multiplicity           Mult            ....    2
 Number of Electrons    NEL             ....   13
 Basis Dimension        Dim             ....  378

ORBITAL ENERGIES
----------------
                 SPIN UP ORBITALS
  NO   OCC          E(Eh)            E(eV)
   0   1.0000      -9.959950      -271.0240
   1   1.0000      -9.913270      -269.7538
   2   1.0000      -0.701657       -19.0931
   3   1.0000      -0.509826       -13.8731
   4   1.0000      -0.356871        -9.7110
   5   1.0000      -0.282662        -7.6916
   6   1.0000      -0.282662        -7.6916
   7   0.0000      -0.029798        -0.8108
   8   0.0000      -0.029798        -0.8108
   9   0.0000      -0.006094        -0.1658
  10   0.0000       0.006646         0.1809
  11   0.0000       0.018297         0.4979

                 SPIN DOWN ORBITALS
  NO   OCC          E(Eh)            E(eV)
   0   1.0000      -9.940587      -270.4971
   1   1.0000      -9.913269      -269.7538
   2   1.0000      -0.687273       -18.7017
   3   1.0000      -0.501776       -13.6540
   4   1.0000      -0.269247        -7.3266
   5   1.0000      -0.269247        -7.3266
   6   0.0000      -0.232159        -6.3174
   7   0.0000      -0.007727        -0.2103
   8   0.0000      -0.007727        -0.2103
   9   0.0000      -0.004816        -0.1310
  10   0.0000       0.011878         0.3232

MULLIKEN ATOMIC CHARGES AND SPIN POPULATIONS
--------------------------------------------
   0 C :   -0.047202   -0.008305
   1 C :    0.001448    0.972862
   2 H :    0.045754    0.035443
Sum of atomic charges         :   -0.0000000

LOEWDIN ATOMIC CHARGES AND SPIN POPULATIONS
-------------------------------------------
   0 C :    0.331523    0.123144
   1 C :    0.312067    0.849815
   2 H :   -0.643590    0.027041

  Mayer bond orders larger than 0.1
B(  0-C ,  1-C ) :   2.8496 B(  0-C ,  2-H ) :   1.0272 B(  1-C ,  2-H ) :   0.1260

FINAL SINGLE POINT ENERGY       -76.538744063042

DIPOLE MOMENT
-------------
                                X             Y             Z
Electronic contribution:     -0.00000       0.00000      -1.18993
Nuclear contribution   :      0.00000       0.00000       1.48993
                        -----------------------------------------
Total Dipole Moment    :     -0.00000       0.00000       0.29999
                        -----------------------------------------
Magnitude (a.u.)       :      0.29999
Magnitude (Debye)      :      0.76253

Rotational constants in cm-1:     0.000000     1.461267     1.461267
Rotational constants in MHz :     0.000000 43807.678146 43807.678146

                             ****ORCA TERMINATED NORMALLY****
TOTAL RUN TIME: 0 days 1 hours 46 minutes 41 seconds 488 msec
