                         Program Version 4.1.2  - RELEASE  -
|  1> !uks pbe nori aug-pc-4 grid7 nofinalgrid verytightscf
|  2>
|  3> %maxcore 1500
|  4>
|  5> %pal nprocs 4 end
|  6>
|  7> %scf
|  8> 	maxiter 200
|  9> end
| 10> %elprop
| 11> 	dipole true
| 12> 	 polar 1
| 13> 	 maxiter 200
| 14> end
| 15>
| 16> * xyz 0 1
| 17> C 0.0000000000 0.0000000000 0.5940000000
| 18> B 0.0000000000 0.0000000000 -0.7886000000
| 19> H 0.0000000000 0.9173000000 1.1687000000
| 20> H 0.0000000000 -0.9173000000 1.1687000000
| 21> H 0.0000000000 0.0000000000 -1.9586000000
| 22> *
| 23>
| 24>                          ****END OF INPUT****

CARTESIAN COORDINATES (ANGSTROEM)
---------------------------------
  C      0.000000    0.000000    0.594000
  B      0.000000    0.000000   -0.788600
  H      0.000000    0.917300    1.168700
  H      0.000000   -0.917300    1.168700
  H      0.000000    0.000000   -1.958600

 Total Charge           Charge          ....    0
 Multiplicity           Mult            ....    1
 Number of Electrons    NEL             ....   14
 Basis Dimension        Dim             ....  554

ORBITAL ENERGIES
----------------
                 SPIN UP ORBITALS
  NO   OCC          E(Eh)            E(eV)
   0   1.0000      -9.858513      -268.2638
   1   1.0000      -6.529338      -177.6723
   2   1.0000      -0.612397       -16.6642
   3   1.0000      -0.426865       -11.6156
   4   1.0000      -0.377102       -10.2615
   5   1.0000      -0.351869        -9.5748
   6   1.0000      -0.208212        -5.6657
   7   0.0000      -0.092875        -2.5273
   8   0.0000      -0.018607        -0.5063
   9   0.0000      -0.011239        -0.3058
  10   0.0000       0.003903         0.1062
  11   0.0000       0.009268         0.2522

                 SPIN DOWN ORBITALS
  NO   OCC          E(Eh)            E(eV)
   0   1.0000      -9.858513      -268.2638
   1   1.0000      -6.529338      -177.6723
   2   1.0000      -0.612397       -16.6642
   3   1.0000      -0.426865       -11.6156
   4   1.0000      -0.377102       -10.2615
   5   1.0000      -0.351869        -9.5748
   6   1.0000      -0.208212        -5.6657
   7   0.0000      -0.092875        -2.5273
   8   0.0000      -0.018607        -0.5063
   9   0.0000      -0.011239        -0.3058
  10   0.0000       0.003903         0.1062
  11   0.0000       0.009268         0.2522

MULLIKEN ATOMIC CHARGES AND SPIN POPULATIONS
--------------------------------------------
   0 C :   -0.138951    0.000000
   1 B :   -0.406201   -0.000000
   2 H :    0.200937    0.000000
   3 H :    0.201285   -0.000000
   4 H :    0.142929    0.000000
Sum of atomic charges         :    0.0000000

LOEWDIN ATOMIC CHARGES AND SPIN POPULATIONS
-------------------------------------------
   0 C :    0.683277   -0.000000
   1 B :    0.623655   -0.000000
   2 H :   -0.504072    0.000000
   3 H :   -0.504072   -0.000000
   4 H :   -0.298788    0.000000

  Mayer bond orders larger than 0.1
B(  0-C ,  1-B ) :   2.1379 B(  0-C ,  2-H ) :   0.8318 B(  0-C ,  3-H ) :   0.8321
B(  1-B ,  4-H ) :   0.9418

FINAL SINGLE POINT ENERGY       -64.607466126217

DIPOLE MOMENT
-------------
                                X             Y             Z
Electronic contribution:     -0.00000      -0.00000      -1.23213
Nuclear contribution   :      0.00000       0.00000       1.03187
                        -----------------------------------------
Total Dipole Moment    :     -0.00000      -0.00000      -0.20026
                        -----------------------------------------
Magnitude (a.u.)       :      0.20026
Magnitude (Debye)      :      0.50903

Rotational constants in cm-1:     9.937647     0.961011     0.876272
Rotational constants in MHz : 297923.176036 28810.382859 26269.969921

                             ****ORCA TERMINATED NORMALLY****
TOTAL RUN TIME: 0 days 1 hours 24 minutes 3 seconds 74 msec
