                         Program Version 4.1.2  - RELEASE  -
|  1> !uks pbe nori aug-pc-4 grid7 nofinalgrid verytightscf
|  2>
|  3> %maxcore 1500
|  4>
|  5> %pal nprocs 4 end
|  6>
|  7> %scf
|  8> 	maxiter 200
|  9> end
| 10> %elprop
| 11> 	dipole true
| 12> 	 polar 1
| 13> 	 maxiter 200
| 14> end
| 15>
| 16> * xyz 0 1
| 17> C 0.0588 0 0.5875
| 18> N 0.0588 0 -0.6855
| 19> H -0.8621 0 1.1946
| 20> H 0.9977 0 1.1231
| 21> H -0.8995 0 -1.0438
| 22> *
| 23>
| 24>                          ****END OF INPUT****

CARTESIAN COORDINATES (ANGSTROEM)
---------------------------------
  C      0.058800    0.000000    0.587500
  N      0.058800    0.000000   -0.685500
  H     -0.862100    0.000000    1.194600
  H      0.997700    0.000000    1.123100
  H     -0.899500    0.000000   -1.043800

 Total Charge           Charge          ....    0
 Multiplicity           Mult            ....    1
 Number of Electrons    NEL             ....   16
 Basis Dimension        Dim             ....  554

ORBITAL ENERGIES
----------------
                 SPIN UP ORBITALS
  NO   OCC          E(Eh)            E(eV)
   0   1.0000     -13.986653      -380.5962
   1   1.0000      -9.933550      -270.3056
   2   1.0000      -0.829710       -22.5776
   3   1.0000      -0.566040       -15.4027
   4   1.0000      -0.453574       -12.3424
   5   1.0000      -0.386825       -10.5260
   6   1.0000      -0.306280        -8.3343
   7   1.0000      -0.232651        -6.3308
   8   0.0000      -0.067696        -1.8421
   9   0.0000      -0.018842        -0.5127
  10   0.0000       0.000977         0.0266
  11   0.0000       0.012634         0.3438
  12   0.0000       0.017501         0.4762

                 SPIN DOWN ORBITALS
  NO   OCC          E(Eh)            E(eV)
   0   1.0000     -13.986653      -380.5962
   1   1.0000      -9.933550      -270.3056
   2   1.0000      -0.829710       -22.5776
   3   1.0000      -0.566040       -15.4027
   4   1.0000      -0.453574       -12.3424
   5   1.0000      -0.386825       -10.5260
   6   1.0000      -0.306280        -8.3343
   7   1.0000      -0.232651        -6.3308
   8   0.0000      -0.067696        -1.8421
   9   0.0000      -0.018842        -0.5127
  10   0.0000       0.000977         0.0266
  11   0.0000       0.012634         0.3438
  12   0.0000       0.017501         0.4762

MULLIKEN ATOMIC CHARGES AND SPIN POPULATIONS
--------------------------------------------
   0 C :    0.159853   -0.000000
   1 N :   -0.349330    0.000000
   2 H :    0.003120    0.000000
   3 H :    0.010064   -0.000000
   4 H :    0.176293    0.000000
Sum of atomic charges         :   -0.0000000

LOEWDIN ATOMIC CHARGES AND SPIN POPULATIONS
-------------------------------------------
   0 C :    0.646359    0.000000
   1 N :    0.792315   -0.000000
   2 H :   -0.386076    0.000000
   3 H :   -0.411287    0.000000
   4 H :   -0.641311   -0.000000

  Mayer bond orders larger than 0.1
B(  0-C ,  1-N ) :   2.0751 B(  0-C ,  2-H ) :   0.9866 B(  0-C ,  3-H ) :   0.9791
B(  1-N ,  4-H ) :   0.9466

FINAL SINGLE POINT ENERGY       -94.555240526885

DIPOLE MOMENT
-------------
                                X             Y             Z
Electronic contribution:      0.27293      -0.00000      -0.74990
Nuclear contribution   :     -0.79013       0.00000       1.31384
                        -----------------------------------------
Total Dipole Moment    :     -0.51720      -0.00000       0.56394
                        -----------------------------------------
Magnitude (a.u.)       :      0.76519
Magnitude (Debye)      :      1.94497

Rotational constants in cm-1:     6.567152     1.158417     0.984717
Rotational constants in MHz : 196878.271853 34728.470441 29521.080331

                             ****ORCA TERMINATED NORMALLY****
TOTAL RUN TIME: 0 days 1 hours 18 minutes 31 seconds 852 msec
