                         Program Version 4.1.2  - RELEASE  -
|  1> !uks pbe nori aug-pc-4 grid7 nofinalgrid verytightscf
|  2>
|  3> %maxcore 1500
|  4>
|  5> %pal nprocs 4 end
|  6>
|  7> %scf
|  8> 	maxiter 200
|  9> end
| 10> %elprop
| 11> 	dipole true
| 12> 	 polar 1
| 13> 	 maxiter 200
| 14> end
| 15>
| 16> * xyz 0 1
| 17> C 0.0000 0.0000 -0.6244
| 18> F 0.0000 0.0000 0.7402
| 19> H 0.0000 1.0245 -0.9718
| 20> H 0.8873 -0.5123 -0.9718
| 21> H -0.8873 -0.5123 -0.9718
| 22> *
| 23>
| 24>                          ****END OF INPUT****

CARTESIAN COORDINATES (ANGSTROEM)
---------------------------------
  C      0.000000    0.000000   -0.624400
  F      0.000000    0.000000    0.740200
  H      0.000000    1.024500   -0.971800
  H      0.887300   -0.512300   -0.971800
  H     -0.887300   -0.512300   -0.971800

 Total Charge           Charge          ....    0
 Multiplicity           Mult            ....    1
 Number of Electrons    NEL             ....   18
 Basis Dimension        Dim             ....  554

ORBITAL ENERGIES
----------------
                 SPIN UP ORBITALS
  NO   OCC          E(Eh)            E(eV)
   0   1.0000     -24.241579      -659.6469
   1   1.0000      -9.948443      -270.7109
   2   1.0000      -1.100245       -29.9392
   3   1.0000      -0.636303       -17.3147
   4   1.0000      -0.444599       -12.0982
   5   1.0000      -0.433290       -11.7904
   6   1.0000      -0.433282       -11.7902
   7   1.0000      -0.295372        -8.0375
   8   1.0000      -0.295367        -8.0373
   9   0.0000      -0.015686        -0.4268
  10   0.0000       0.002369         0.0645
  11   0.0000       0.013993         0.3808
  12   0.0000       0.013993         0.3808
  13   0.0000       0.035806         0.9743

                 SPIN DOWN ORBITALS
  NO   OCC          E(Eh)            E(eV)
   0   1.0000     -24.241579      -659.6469
   1   1.0000      -9.948443      -270.7109
   2   1.0000      -1.100245       -29.9392
   3   1.0000      -0.636303       -17.3147
   4   1.0000      -0.444599       -12.0982
   5   1.0000      -0.433290       -11.7904
   6   1.0000      -0.433282       -11.7902
   7   1.0000      -0.295372        -8.0375
   8   1.0000      -0.295367        -8.0373
   9   0.0000      -0.015686        -0.4268
  10   0.0000       0.002369         0.0645
  11   0.0000       0.013993         0.3808
  12   0.0000       0.013993         0.3808
  13   0.0000       0.035806         0.9743

MULLIKEN ATOMIC CHARGES AND SPIN POPULATIONS
--------------------------------------------
   0 C :    0.574777   -0.000000
   1 F :   -0.498955   -0.000000
   2 H :   -0.025221    0.000000
   3 H :   -0.025354    0.000000
   4 H :   -0.025247   -0.000000
Sum of atomic charges         :   -0.0000000

LOEWDIN ATOMIC CHARGES AND SPIN POPULATIONS
-------------------------------------------
   0 C :    0.663491   -0.000000
   1 F :    0.376196   -0.000000
   2 H :   -0.346610    0.000000
   3 H :   -0.346539   -0.000000
   4 H :   -0.346539    0.000000

  Mayer bond orders larger than 0.1
B(  0-C ,  1-F ) :   0.8005 B(  0-C ,  2-H ) :   0.9753 B(  0-C ,  3-H ) :   0.9754
B(  0-C ,  4-H ) :   0.9753

FINAL SINGLE POINT ENERGY      -139.658054242759

DIPOLE MOMENT
-------------
                                X             Y             Z
Electronic contribution:     -0.00000       0.00010       2.97797
Nuclear contribution   :      0.00000      -0.00009      -3.62202
                        -----------------------------------------
Total Dipole Moment    :     -0.00000       0.00001      -0.64405
                        -----------------------------------------
Magnitude (a.u.)       :      0.64405
Magnitude (Debye)      :      1.63703

Rotational constants in cm-1:     5.310668     0.880351     0.880346
Rotational constants in MHz : 159209.828292 26392.246338 26392.107754

                             ****ORCA TERMINATED NORMALLY****
TOTAL RUN TIME: 0 days 1 hours 15 minutes 38 seconds 186 msec
