                         Program Version 4.1.2  - RELEASE  -
|  1> !uks pbe nori aug-pc-4 grid7 nofinalgrid verytightscf
|  2>
|  3> %maxcore 1500
|  4>
|  5> %pal nprocs 4 end
|  6>
|  7> %scf
|  8> 	maxiter 200
|  9> end
| 10> %elprop
| 11> 	dipole true
| 12> 	 polar 1
| 13> 	 maxiter 200
| 14> end
| 15>
| 16> * xyz 0 1
| 17> N 0.7505020558 -0.1263257432 -0.0000000014
| 18> H 1.1371866572 0.3468207227 -0.8058999300
| 19> H 1.1371866572 0.3468207227 0.8058999300
| 20> C -0.7051562913 0.0180439780 -0.0000000014
| 21> H -1.1126045962 -0.4830900647 0.8751002462
| 22> H -1.1126045962 -0.4830900647 -0.8751002462
| 23> H -1.0717407540 1.0485550259 0.0000000000
| 24> *
| 25>
| 26>                          ****END OF INPUT****

CARTESIAN COORDINATES (ANGSTROEM)
---------------------------------
  N      0.750502   -0.126326   -0.000000
  H      1.137187    0.346821   -0.805900
  H      1.137187    0.346821    0.805900
  C     -0.705156    0.018044   -0.000000
  H     -1.112605   -0.483090    0.875100
  H     -1.112605   -0.483090   -0.875100
  H     -1.071741    1.048555    0.000000

 Total Charge           Charge          ....    0
 Multiplicity           Mult            ....    1
 Number of Electrons    NEL             ....   18
 Basis Dimension        Dim             ....  730

ORBITAL ENERGIES
----------------
                 SPIN UP ORBITALS
  NO   OCC          E(Eh)            E(eV)
   0   1.0000     -13.965252      -380.0138
   1   1.0000      -9.895373      -269.2668
   2   1.0000      -0.800886       -21.7932
   3   1.0000      -0.596648       -16.2356
   4   1.0000      -0.441396       -12.0110
   5   1.0000      -0.395570       -10.7640
   6   1.0000      -0.358146        -9.7456
   7   1.0000      -0.323858        -8.8126
   8   1.0000      -0.201082        -5.4717
   9   0.0000      -0.022829        -0.6212
  10   0.0000      -0.000173        -0.0047
  11   0.0000       0.007973         0.2169
  12   0.0000       0.013704         0.3729
  13   0.0000       0.027606         0.7512

                 SPIN DOWN ORBITALS
  NO   OCC          E(Eh)            E(eV)
   0   1.0000     -13.965252      -380.0138
   1   1.0000      -9.895373      -269.2668
   2   1.0000      -0.800886       -21.7932
   3   1.0000      -0.596648       -16.2356
   4   1.0000      -0.441396       -12.0110
   5   1.0000      -0.395570       -10.7640
   6   1.0000      -0.358146        -9.7456
   7   1.0000      -0.323858        -8.8126
   8   1.0000      -0.201082        -5.4717
   9   0.0000      -0.022829        -0.6212
  10   0.0000      -0.000173        -0.0047
  11   0.0000       0.007973         0.2169
  12   0.0000       0.013704         0.3729
  13   0.0000       0.027606         0.7512

MULLIKEN ATOMIC CHARGES AND SPIN POPULATIONS
--------------------------------------------
   0 N :   -0.379930    0.000000
   1 H :    0.100346    0.000000
   2 H :    0.099950    0.000000
   3 C :   -0.000415    0.000000
   4 H :    0.018890   -0.000000
   5 H :    0.020195   -0.000000
   6 H :    0.140963    0.000000
Sum of atomic charges         :    0.0000000

LOEWDIN ATOMIC CHARGES AND SPIN POPULATIONS
-------------------------------------------
   0 N :    1.086202   -0.000000
   1 H :   -0.527804   -0.000000
   2 H :   -0.527804   -0.000000
   3 C :    0.924406    0.000000
   4 H :   -0.321524   -0.000000
   5 H :   -0.321523   -0.000000
   6 H :   -0.311954    0.000000

  Mayer bond orders larger than 0.1
B(  0-N ,  1-H ) :   1.0419 B(  0-N ,  2-H ) :   1.0420 B(  0-N ,  3-C ) :   0.9689
B(  3-C ,  4-H ) :   1.0384 B(  3-C ,  5-H ) :   1.0372 B(  3-C ,  6-H ) :   0.9215

FINAL SINGLE POINT ENERGY       -95.776480716013

DIPOLE MOMENT
-------------
                                X             Y             Z
Electronic contribution:      1.00756      -0.33514      -0.00000
Nuclear contribution   :     -1.10824       0.84385       0.00000
                        -----------------------------------------
Total Dipole Moment    :     -0.10068       0.50871      -0.00000
                        -----------------------------------------
Magnitude (a.u.)       :      0.51858
Magnitude (Debye)      :      1.31813

Rotational constants in cm-1:     3.472289     0.762135     0.733884
Rotational constants in MHz : 104096.612766 22848.226266 22001.276031

                             ****ORCA TERMINATED NORMALLY****
TOTAL RUN TIME: 0 days 3 hours 33 minutes 38 seconds 192 msec
