                         Program Version 4.1.2  - RELEASE  -
|  1> !uks pbe nori aug-pc-4 grid7 nofinalgrid verytightscf
|  2>
|  3> %maxcore 1500
|  4>
|  5> %pal nprocs 4 end
|  6>
|  7> %scf
|  8> 	maxiter 200
|  9> end
| 10> %elprop
| 11> 	dipole true
| 12> 	 polar 1
| 13> 	 maxiter 200
| 14> end
| 15>
| 16> * xyz 0 2
| 17> C 0.0000 0.0000 -0.5899
| 18> O 0.0000 0.0000 0.8151
| 19> H 0.0000 1.0360 -0.9938
| 20> H 0.8972 -0.5180 -0.9938
| 21> H -0.8972 -0.5180 -0.9938
| 22> *
| 23>
| 24>                          ****END OF INPUT****

CARTESIAN COORDINATES (ANGSTROEM)
---------------------------------
  C      0.000000    0.000000   -0.589900
  O      0.000000    0.000000    0.815100
  H      0.000000    1.036000   -0.993800
  H      0.897200   -0.518000   -0.993800
  H     -0.897200   -0.518000   -0.993800

 Total Charge           Charge          ....    0
 Multiplicity           Mult            ....    2
 Number of Electrons    NEL             ....   17
 Basis Dimension        Dim             ....  554

ORBITAL ENERGIES
----------------
                 SPIN UP ORBITALS
  NO   OCC          E(Eh)            E(eV)
   0   1.0000     -18.800268      -511.5813
   1   1.0000      -9.947685      -270.6903
   2   1.0000      -0.927921       -25.2500
   3   1.0000      -0.615115       -16.7381
   4   1.0000      -0.430845       -11.7239
   5   1.0000      -0.405950       -11.0465
   6   1.0000      -0.388353       -10.5676
   7   1.0000      -0.293799        -7.9947
   8   1.0000      -0.240734        -6.5507
   9   0.0000      -0.020667        -0.5624
  10   0.0000       0.005083         0.1383
  11   0.0000       0.010670         0.2903
  12   0.0000       0.012106         0.3294
  13   0.0000       0.032905         0.8954

                 SPIN DOWN ORBITALS
  NO   OCC          E(Eh)            E(eV)
   0   1.0000     -18.779152      -511.0067
   1   1.0000      -9.947973      -270.6981
   2   1.0000      -0.885944       -24.1078
   3   1.0000      -0.601997       -16.3812
   4   1.0000      -0.403820       -10.9885
   5   1.0000      -0.401714       -10.9312
   6   1.0000      -0.370995       -10.0953
   7   1.0000      -0.223415        -6.0794
   8   0.0000      -0.200977        -5.4689
   9   0.0000      -0.018450        -0.5021
  10   0.0000       0.007835         0.2132
  11   0.0000       0.012236         0.3330
  12   0.0000       0.012670         0.3448

MULLIKEN ATOMIC CHARGES AND SPIN POPULATIONS
--------------------------------------------
   0 C :    0.341517   -0.080417
   1 O :   -0.332167    0.901813
   2 H :    0.034510    0.126833
   3 H :   -0.021977    0.025886
   4 H :   -0.021883    0.025886
Sum of atomic charges         :   -0.0000000

LOEWDIN ATOMIC CHARGES AND SPIN POPULATIONS
-------------------------------------------
   0 C :    0.624814    0.129561
   1 O :    0.498408    0.741319
   2 H :   -0.369525    0.058739
   3 H :   -0.376850    0.035187
   4 H :   -0.376847    0.035195

  Mayer bond orders larger than 0.1
B(  0-C ,  1-O ) :   1.0452 B(  0-C ,  2-H ) :   0.9202 B(  0-C ,  3-H ) :   0.9739
B(  0-C ,  4-H ) :   0.9738 B(  1-O ,  2-H ) :   0.1064

FINAL SINGLE POINT ENERGY      -114.969756982047

DIPOLE MOMENT
-------------
                                X             Y             Z
Electronic contribution:     -0.00002       0.06748       2.22167
Nuclear contribution   :      0.00000       0.00000      -3.05399
                        -----------------------------------------
Total Dipole Moment    :     -0.00002       0.06748      -0.83232
                        -----------------------------------------
Magnitude (a.u.)       :      0.83505
Magnitude (Debye)      :      2.12253

Rotational constants in cm-1:     5.193938     0.880841     0.880841
Rotational constants in MHz : 155710.331212 26406.948819 26406.937247

                             ****ORCA TERMINATED NORMALLY****
TOTAL RUN TIME: 0 days 1 hours 42 minutes 11 seconds 248 msec
