                         Program Version 4.1.2  - RELEASE  -
|  1> !uks pbe nori aug-pc-4 grid7 nofinalgrid verytightscf
|  2>
|  3> %maxcore 1500
|  4>
|  5> %pal nprocs 1 end
|  6>
|  7> %scf
|  8> 	maxiter 200
|  9> end
| 10> %elprop
| 11> 	dipole true
| 12> 	 polar 1
| 13> 	 maxiter 200
| 14> end
| 15>
| 16> * xyz 0 1
| 17> Cl 0.0000 0.0000 0.0000
| 18> Cl 0.0000 0.0000 1.9879
| 19> *
| 20>
| 21>                          ****END OF INPUT****

CARTESIAN COORDINATES (ANGSTROEM)
---------------------------------
  Cl     0.000000    0.000000    0.000000
  Cl     0.000000    0.000000    1.987900

 Total Charge           Charge          ....    0
 Multiplicity           Mult            ....    1
 Number of Electrons    NEL             ....   34
 Basis Dimension        Dim             ....  282

ORBITAL ENERGIES
----------------
                 SPIN UP ORBITALS
  NO   OCC          E(Eh)            E(eV)
   0   1.0000    -100.705994     -2740.3494
   1   1.0000    -100.705994     -2740.3494
   2   1.0000      -9.226703      -251.0713
   3   1.0000      -9.226678      -251.0707
   4   1.0000      -7.053646      -191.9395
   5   1.0000      -7.053508      -191.9357
   6   1.0000      -7.037600      -191.5028
   7   1.0000      -7.037600      -191.5028
   8   1.0000      -7.037591      -191.5026
   9   1.0000      -7.037591      -191.5026
  10   1.0000      -0.862488       -23.4695
  11   1.0000      -0.702356       -19.1121
  12   1.0000      -0.441006       -12.0004
  13   1.0000      -0.367615       -10.0033
  14   1.0000      -0.367615       -10.0033
  15   1.0000      -0.268461        -7.3052
  16   1.0000      -0.268461        -7.3052
  17   0.0000      -0.155565        -4.2331
  18   0.0000      -0.004573        -0.1244
  19   0.0000       0.016373         0.4455
  20   0.0000       0.022377         0.6089
  21   0.0000       0.022377         0.6089

                 SPIN DOWN ORBITALS
  NO   OCC          E(Eh)            E(eV)
   0   1.0000    -100.705994     -2740.3494
   1   1.0000    -100.705994     -2740.3494
   2   1.0000      -9.226703      -251.0713
   3   1.0000      -9.226678      -251.0707
   4   1.0000      -7.053646      -191.9395
   5   1.0000      -7.053508      -191.9357
   6   1.0000      -7.037600      -191.5028
   7   1.0000      -7.037600      -191.5028
   8   1.0000      -7.037591      -191.5026
   9   1.0000      -7.037591      -191.5026
  10   1.0000      -0.862488       -23.4695
  11   1.0000      -0.702356       -19.1121
  12   1.0000      -0.441006       -12.0004
  13   1.0000      -0.367615       -10.0033
  14   1.0000      -0.367615       -10.0033
  15   1.0000      -0.268461        -7.3052
  16   1.0000      -0.268461        -7.3052
  17   0.0000      -0.155565        -4.2331
  18   0.0000      -0.004573        -0.1244
  19   0.0000       0.016373         0.4455
  20   0.0000       0.022377         0.6089
  21   0.0000       0.022377         0.6089

MULLIKEN ATOMIC CHARGES AND SPIN POPULATIONS
--------------------------------------------
   0 Cl:    0.000001    0.000000
   1 Cl:   -0.000001   -0.000000
Sum of atomic charges         :   -0.0000000

LOEWDIN ATOMIC CHARGES AND SPIN POPULATIONS
-------------------------------------------
   0 Cl:    0.000000   -0.000000
   1 Cl:   -0.000000    0.000000

  Mayer bond orders larger than 0.1
B(  0-Cl,  1-Cl) :   1.2465

FINAL SINGLE POINT ENERGY      -920.054029526121

DIPOLE MOMENT
-------------
                                X             Y             Z
Electronic contribution:     -0.00000       0.00000      -0.00000
Nuclear contribution   :      0.00000       0.00000       0.00000
                        -----------------------------------------
Total Dipole Moment    :     -0.00000       0.00000      -0.00000
                        -----------------------------------------
Magnitude (a.u.)       :      0.00000
Magnitude (Debye)      :      0.00000

Rotational constants in cm-1:     0.000000     0.240649     0.240649
Rotational constants in MHz :     0.000000  7214.488434  7214.488434

                             ****ORCA TERMINATED NORMALLY****
TOTAL RUN TIME: 0 days 0 hours 51 minutes 11 seconds 674 msec
