                         Program Version 4.1.2  - RELEASE  -
|  1> !uks pbe nori aug-pc-4 grid7 nofinalgrid verytightscf
|  2>
|  3> %maxcore 1500
|  4>
|  5> %pal nprocs 1 end
|  6>
|  7> %scf
|  8> 	maxiter 200
|  9> end
| 10> %elprop
| 11> 	dipole true
| 12> 	 polar 1
| 13> 	 maxiter 200
| 14> end
| 15>
| 16> * xyz 0 1
| 17> F 0.0000 0.0000 0.0000
| 18> Cl 0.0000 0.0000 1.6283
| 19> *
| 20>
| 21>                          ****END OF INPUT****

CARTESIAN COORDINATES (ANGSTROEM)
---------------------------------
  F      0.000000    0.000000    0.000000
  Cl     0.000000    0.000000    1.628300

 Total Charge           Charge          ....    0
 Multiplicity           Mult            ....    1
 Number of Electrons    NEL             ....   26
 Basis Dimension        Dim             ....  286

ORBITAL ENERGIES
----------------
                 SPIN UP ORBITALS
  NO   OCC          E(Eh)            E(eV)
   0   1.0000    -100.733782     -2741.1056
   1   1.0000     -24.315731      -661.6647
   2   1.0000      -9.251475      -251.7454
   3   1.0000      -7.081810      -192.7058
   4   1.0000      -7.061050      -192.1409
   5   1.0000      -7.061050      -192.1409
   6   1.0000      -1.149858       -31.2892
   7   1.0000      -0.765804       -20.8386
   8   1.0000      -0.501123       -13.6363
   9   1.0000      -0.432477       -11.7683
  10   1.0000      -0.432477       -11.7683
  11   1.0000      -0.288434        -7.8487
  12   1.0000      -0.288434        -7.8487
  13   0.0000      -0.163557        -4.4506
  14   0.0000      -0.005637        -0.1534
  15   0.0000       0.025056         0.6818
  16   0.0000       0.025056         0.6818
  17   0.0000       0.028101         0.7647

                 SPIN DOWN ORBITALS
  NO   OCC          E(Eh)            E(eV)
   0   1.0000    -100.733782     -2741.1056
   1   1.0000     -24.315731      -661.6647
   2   1.0000      -9.251475      -251.7454
   3   1.0000      -7.081810      -192.7058
   4   1.0000      -7.061050      -192.1409
   5   1.0000      -7.061050      -192.1409
   6   1.0000      -1.149858       -31.2892
   7   1.0000      -0.765804       -20.8386
   8   1.0000      -0.501123       -13.6363
   9   1.0000      -0.432477       -11.7683
  10   1.0000      -0.432477       -11.7683
  11   1.0000      -0.288434        -7.8487
  12   1.0000      -0.288434        -7.8487
  13   0.0000      -0.163557        -4.4506
  14   0.0000      -0.005637        -0.1534
  15   0.0000       0.025056         0.6818
  16   0.0000       0.025056         0.6818
  17   0.0000       0.028101         0.7647

MULLIKEN ATOMIC CHARGES AND SPIN POPULATIONS
--------------------------------------------
   0 F :   -0.084647    0.000000
   1 Cl:    0.084647   -0.000000
Sum of atomic charges         :    0.0000000

LOEWDIN ATOMIC CHARGES AND SPIN POPULATIONS
-------------------------------------------
   0 F :   -1.037493    0.000000
   1 Cl:    1.037493   -0.000000

  Mayer bond orders larger than 0.1
B(  0-F ,  1-Cl) :   1.0532

FINAL SINGLE POINT ENERGY      -559.766107120055

DIPOLE MOMENT
-------------
                                X             Y             Z
Electronic contribution:      0.00000      -0.00000       0.06315
Nuclear contribution   :      0.00000       0.00000       0.21977
                        -----------------------------------------
Total Dipole Moment    :      0.00000      -0.00000       0.28292
                        -----------------------------------------
Magnitude (a.u.)       :      0.28292
Magnitude (Debye)      :      0.71912

Rotational constants in cm-1:     0.000000     0.514012     0.514012
Rotational constants in MHz :     0.000000 15409.684402 15409.684402

                             ****ORCA TERMINATED NORMALLY****
TOTAL RUN TIME: 0 days 0 hours 47 minutes 2 seconds 743 msec
