                         Program Version 4.1.2  - RELEASE  -
|  1> !uks pbe nori aug-pc-4 grid7 nofinalgrid verytightscf
|  2>
|  3> %maxcore 1500
|  4>
|  5> %pal nprocs 1 end
|  6>
|  7> %scf
|  8> 	maxiter 200
|  9> end
| 10> %elprop
| 11> 	dipole true
| 12> 	 polar 1
| 13> 	 maxiter 200
| 14> end
| 15>
| 16> * xyz 0 2
| 17> N 0.0000 0.0000 0.0000
| 18> C 0.0000 0.0000 1.1718
| 19> *
| 20>
| 21>                          ****END OF INPUT****

CARTESIAN COORDINATES (ANGSTROEM)
---------------------------------
  N      0.000000    0.000000    0.000000
  C      0.000000    0.000000    1.171800

 Total Charge           Charge          ....    0
 Multiplicity           Mult            ....    2
 Number of Electrons    NEL             ....   13
 Basis Dimension        Dim             ....  290

ORBITAL ENERGIES
----------------
                 SPIN UP ORBITALS
  NO   OCC          E(Eh)            E(eV)
   0   1.0000     -14.054312      -382.4373
   1   1.0000     -10.003215      -272.2013
   2   1.0000      -0.878606       -23.9081
   3   1.0000      -0.448321       -12.1994
   4   1.0000      -0.357540        -9.7292
   5   1.0000      -0.353938        -9.6311
   6   1.0000      -0.353938        -9.6311
   7   0.0000      -0.059149        -1.6095
   8   0.0000      -0.059149        -1.6095
   9   0.0000      -0.001044        -0.0284
  10   0.0000       0.016277         0.4429
  11   0.0000       0.019252         0.5239

                 SPIN DOWN ORBITALS
  NO   OCC          E(Eh)            E(eV)
   0   1.0000     -14.049400      -382.3036
   1   1.0000      -9.989665      -271.8326
   2   1.0000      -0.860978       -23.4284
   3   1.0000      -0.399772       -10.8783
   4   1.0000      -0.345171        -9.3926
   5   1.0000      -0.345171        -9.3926
   6   0.0000      -0.281612        -7.6631
   7   0.0000      -0.036551        -0.9946
   8   0.0000      -0.036551        -0.9946
   9   0.0000       0.005827         0.1586
  10   0.0000       0.020115         0.5474

MULLIKEN ATOMIC CHARGES AND SPIN POPULATIONS
--------------------------------------------
   0 N :    0.057779    0.228123
   1 C :   -0.057779    0.771877
Sum of atomic charges         :    0.0000000

LOEWDIN ATOMIC CHARGES AND SPIN POPULATIONS
-------------------------------------------
   0 N :    0.022080    0.339238
   1 C :   -0.022080    0.660762

  Mayer bond orders larger than 0.1
B(  0-N ,  1-C ) :   3.0734

FINAL SINGLE POINT ENERGY       -92.649566807678

DIPOLE MOMENT
-------------
                                X             Y             Z
Electronic contribution:      0.00000       0.00000       0.45729
Nuclear contribution   :      0.00000       0.00000      -0.00298
                        -----------------------------------------
Total Dipole Moment    :      0.00000       0.00000       0.45431
                        -----------------------------------------
Magnitude (a.u.)       :      0.45431
Magnitude (Debye)      :      1.15477

Rotational constants in cm-1:     0.000000     1.898626     1.898626
Rotational constants in MHz :     0.000000 56919.389108 56919.389108

                             ****ORCA TERMINATED NORMALLY****
TOTAL RUN TIME: 0 days 0 hours 44 minutes 47 seconds 15 msec
