                         Program Version 4.1.2  - RELEASE  -
|  1> !uks pbe nori aug-pc-4 grid7 nofinalgrid verytightscf
|  2>
|  3> %maxcore 1500
|  4>
|  5> %pal nprocs 1 end
|  6>
|  7> %scf
|  8> 	maxiter 200
|  9> end
| 10> %elprop
| 11> 	dipole true
| 12> 	 polar 1
| 13> 	 maxiter 200
| 14> end
| 15>
| 16> * xyz 0 1
| 17> C 0.0000 0.0000 0.0000
| 18> O 0.0000 0.0000 1.1621
| 19> O 0.0000 0.0000 -1.1621
| 20> *
| 21>
| 22>                          ****END OF INPUT****

CARTESIAN COORDINATES (ANGSTROEM)
---------------------------------
  C      0.000000    0.000000    0.000000
  O      0.000000    0.000000    1.162100
  O      0.000000    0.000000   -1.162100

 Total Charge           Charge          ....    0
 Multiplicity           Mult            ....    1
 Number of Electrons    NEL             ....   22
 Basis Dimension        Dim             ....  435

ORBITAL ENERGIES
----------------
                 SPIN UP ORBITALS
  NO   OCC          E(Eh)            E(eV)
   0   1.0000     -18.831284      -512.4253
   1   1.0000     -18.831284      -512.4253
   2   1.0000     -10.059274      -273.7268
   3   1.0000      -1.072251       -29.1774
   4   1.0000      -1.035412       -28.1750
   5   1.0000      -0.506927       -13.7942
   6   1.0000      -0.468565       -12.7503
   7   1.0000      -0.468565       -12.7503
   8   1.0000      -0.466417       -12.6919
   9   1.0000      -0.333897        -9.0858
  10   1.0000      -0.333897        -9.0858
  11   0.0000      -0.034488        -0.9385
  12   0.0000      -0.012608        -0.3431
  13   0.0000      -0.012608        -0.3431
  14   0.0000       0.017026         0.4633
  15   0.0000       0.017088         0.4650

                 SPIN DOWN ORBITALS
  NO   OCC          E(Eh)            E(eV)
   0   1.0000     -18.831284      -512.4253
   1   1.0000     -18.831284      -512.4253
   2   1.0000     -10.059274      -273.7268
   3   1.0000      -1.072251       -29.1774
   4   1.0000      -1.035412       -28.1750
   5   1.0000      -0.506927       -13.7942
   6   1.0000      -0.468565       -12.7503
   7   1.0000      -0.468565       -12.7503
   8   1.0000      -0.466417       -12.6919
   9   1.0000      -0.333897        -9.0858
  10   1.0000      -0.333897        -9.0858
  11   0.0000      -0.034488        -0.9385
  12   0.0000      -0.012608        -0.3431
  13   0.0000      -0.012608        -0.3431
  14   0.0000       0.017026         0.4633
  15   0.0000       0.017088         0.4650

MULLIKEN ATOMIC CHARGES AND SPIN POPULATIONS
--------------------------------------------
   0 C :    0.196443   -0.000000
   1 O :   -0.098207    0.000000
   2 O :   -0.098237    0.000000
Sum of atomic charges         :    0.0000000

LOEWDIN ATOMIC CHARGES AND SPIN POPULATIONS
-------------------------------------------
   0 C :   -0.582734   -0.000000
   1 O :    0.291367    0.000000
   2 O :    0.291367   -0.000000

  Mayer bond orders larger than 0.1
B(  0-C ,  1-O ) :   2.1245 B(  0-C ,  2-O ) :   2.1245 B(  1-O ,  2-O ) :   0.1893

FINAL SINGLE POINT ENERGY      -188.492363131966

DIPOLE MOMENT
-------------
                                X             Y             Z
Electronic contribution:      0.00000       0.00000       0.00000
Nuclear contribution   :      0.00000       0.00000       0.00000
                        -----------------------------------------
Total Dipole Moment    :      0.00000       0.00000       0.00000
                        -----------------------------------------
Magnitude (a.u.)       :      0.00000
Magnitude (Debye)      :      0.00000

Rotational constants in cm-1:     0.000000     0.390110     0.390110
Rotational constants in MHz :     0.000000 11695.203081 11695.203081

                             ****ORCA TERMINATED NORMALLY****
TOTAL RUN TIME: 0 days 2 hours 21 minutes 3 seconds 850 msec
