                         Program Version 4.1.2  - RELEASE  -
|  1> !uks pbe nori aug-pc-4 grid7 nofinalgrid verytightscf
|  2>
|  3> %maxcore 1500
|  4>
|  5> %pal nprocs 1 end
|  6>
|  7> %scf
|  8> 	maxiter 200
|  9> end
| 10> %elprop
| 11> 	dipole true
| 12> 	 polar 1
| 13> 	 maxiter 200
| 14> end
| 15>
| 16> * xyz 0 1
| 17> C 0.0000 0.0000 0.0000
| 18> S 0.0000 0.0000 1.5349
| 19> *
| 20>
| 21>                          ****END OF INPUT****

CARTESIAN COORDINATES (ANGSTROEM)
---------------------------------
  C      0.000000    0.000000    0.000000
  S      0.000000    0.000000    1.534900

 Total Charge           Charge          ....    0
 Multiplicity           Mult            ....    1
 Number of Electrons    NEL             ....   22
 Basis Dimension        Dim             ....  286

ORBITAL ENERGIES
----------------
                 SPIN UP ORBITALS
  NO   OCC          E(Eh)            E(eV)
   0   1.0000     -88.084200     -2396.8929
   1   1.0000      -9.982753      -271.6445
   2   1.0000      -7.727138      -210.2661
   3   1.0000      -5.744118      -156.3054
   4   1.0000      -5.744118      -156.3054
   5   1.0000      -5.742285      -156.2555
   6   1.0000      -0.767533       -20.8856
   7   1.0000      -0.479146       -13.0382
   8   1.0000      -0.328200        -8.9308
   9   1.0000      -0.328200        -8.9308
  10   1.0000      -0.271287        -7.3821
  11   0.0000      -0.125926        -3.4266
  12   0.0000      -0.125926        -3.4266
  13   0.0000      -0.009596        -0.2611
  14   0.0000       0.001119         0.0305
  15   0.0000       0.015928         0.4334

                 SPIN DOWN ORBITALS
  NO   OCC          E(Eh)            E(eV)
   0   1.0000     -88.084200     -2396.8929
   1   1.0000      -9.982753      -271.6445
   2   1.0000      -7.727138      -210.2661
   3   1.0000      -5.744118      -156.3054
   4   1.0000      -5.744118      -156.3054
   5   1.0000      -5.742285      -156.2555
   6   1.0000      -0.767533       -20.8856
   7   1.0000      -0.479146       -13.0382
   8   1.0000      -0.328200        -8.9308
   9   1.0000      -0.328200        -8.9308
  10   1.0000      -0.271287        -7.3821
  11   0.0000      -0.125926        -3.4266
  12   0.0000      -0.125926        -3.4266
  13   0.0000      -0.009596        -0.2611
  14   0.0000       0.001119         0.0305
  15   0.0000       0.015928         0.4334

MULLIKEN ATOMIC CHARGES AND SPIN POPULATIONS
--------------------------------------------
   0 C :   -0.034805    0.000000
   1 S :    0.034805   -0.000000
Sum of atomic charges         :   -0.0000000

LOEWDIN ATOMIC CHARGES AND SPIN POPULATIONS
-------------------------------------------
   0 C :   -0.803098    0.000000
   1 S :    0.803098   -0.000000

  Mayer bond orders larger than 0.1
B(  0-C ,  1-S ) :   2.5567

FINAL SINGLE POINT ENERGY      -436.037731550546

DIPOLE MOMENT
-------------
                                X             Y             Z
Electronic contribution:      0.00000      -0.00000       0.80242
Nuclear contribution   :      0.00000       0.00000      -0.01211
                        -----------------------------------------
Total Dipole Moment    :      0.00000      -0.00000       0.79031
                        -----------------------------------------
Magnitude (a.u.)       :      0.79031
Magnitude (Debye)      :      2.00881

Rotational constants in cm-1:     0.000000     0.818930     0.818930
Rotational constants in MHz :     0.000000 24550.913255 24550.913255

                             ****ORCA TERMINATED NORMALLY****
TOTAL RUN TIME: 0 days 0 hours 55 minutes 18 seconds 182 msec
