                         Program Version 4.1.2  - RELEASE  -
|  1> !uks pbe nori aug-pc-4 grid7 nofinalgrid verytightscf
|  2>
|  3> %maxcore 1500
|  4>
|  5> %pal nprocs 1 end
|  6>
|  7> %scf
|  8> 	maxiter 200
|  9> end
| 10> %elprop
| 11> 	dipole true
| 12> 	 polar 1
| 13> 	 maxiter 200
| 14> end
| 15>
| 16> * xyz 0 1
| 17> C 0.0000 0.0000 0.0000
| 18> O 0.0000 0.0000 1.1600
| 19> S 0.0000 0.0000 -1.5600
| 20> *
| 21>
| 22>                          ****END OF INPUT****

CARTESIAN COORDINATES (ANGSTROEM)
---------------------------------
  C      0.000000    0.000000    0.000000
  O      0.000000    0.000000    1.160000
  S      0.000000    0.000000   -1.560000

 Total Charge           Charge          ....    0
 Multiplicity           Mult            ....    1
 Number of Electrons    NEL             ....   30
 Basis Dimension        Dim             ....  431

ORBITAL ENERGIES
----------------
                 SPIN UP ORBITALS
  NO   OCC          E(Eh)            E(eV)
   0   1.0000     -88.067274     -2396.4323
   1   1.0000     -18.832908      -512.4695
   2   1.0000     -10.034367      -273.0490
   3   1.0000      -7.707554      -209.7332
   4   1.0000      -5.728260      -155.8739
   5   1.0000      -5.721973      -155.7028
   6   1.0000      -5.721973      -155.7028
   7   1.0000      -1.050038       -28.5730
   8   1.0000      -0.754357       -20.5271
   9   1.0000      -0.494076       -13.4445
  10   1.0000      -0.430610       -11.7175
  11   1.0000      -0.430610       -11.7175
  12   1.0000      -0.427995       -11.6463
  13   1.0000      -0.275166        -7.4876
  14   1.0000      -0.275166        -7.4876
  15   0.0000      -0.071987        -1.9589
  16   0.0000      -0.071987        -1.9589
  17   0.0000      -0.025135        -0.6840
  18   0.0000       0.005314         0.1446
  19   0.0000       0.015972         0.4346

                 SPIN DOWN ORBITALS
  NO   OCC          E(Eh)            E(eV)
   0   1.0000     -88.067274     -2396.4323
   1   1.0000     -18.832908      -512.4695
   2   1.0000     -10.034367      -273.0490
   3   1.0000      -7.707554      -209.7332
   4   1.0000      -5.728260      -155.8739
   5   1.0000      -5.721973      -155.7028
   6   1.0000      -5.721973      -155.7028
   7   1.0000      -1.050038       -28.5730
   8   1.0000      -0.754357       -20.5271
   9   1.0000      -0.494076       -13.4445
  10   1.0000      -0.430610       -11.7175
  11   1.0000      -0.430610       -11.7175
  12   1.0000      -0.427995       -11.6463
  13   1.0000      -0.275166        -7.4876
  14   1.0000      -0.275166        -7.4876
  15   0.0000      -0.071987        -1.9589
  16   0.0000      -0.071987        -1.9589
  17   0.0000      -0.025135        -0.6840
  18   0.0000       0.005314         0.1446
  19   0.0000       0.015972         0.4346

MULLIKEN ATOMIC CHARGES AND SPIN POPULATIONS
--------------------------------------------
   0 C :    0.174950   -0.000000
   1 O :   -0.016469   -0.000000
   2 S :   -0.158481    0.000000
Sum of atomic charges         :    0.0000000

LOEWDIN ATOMIC CHARGES AND SPIN POPULATIONS
-------------------------------------------
   0 C :   -1.071186   -0.000000
   1 O :   -0.014571   -0.000000
   2 S :    1.085756    0.000000

  Mayer bond orders larger than 0.1
B(  0-C ,  1-O ) :   2.0585 B(  0-C ,  2-S ) :   2.0145 B(  1-O ,  2-S ) :   0.2246

FINAL SINGLE POINT ENERGY      -511.339607892630

DIPOLE MOMENT
-------------
                                X             Y             Z
Electronic contribution:      0.00000      -0.00000      -0.35501
Nuclear contribution   :      0.00000       0.00000       0.05490
                        -----------------------------------------
Total Dipole Moment    :      0.00000      -0.00000      -0.30011
                        -----------------------------------------
Magnitude (a.u.)       :      0.30011
Magnitude (Debye)      :      0.76283

Rotational constants in cm-1:     0.000000     0.202912     0.202912
Rotational constants in MHz :     0.000000  6083.144754  6083.144754

                             ****ORCA TERMINATED NORMALLY****
TOTAL RUN TIME: 0 days 3 hours 54 minutes 20 seconds 685 msec
