                         Program Version 4.1.2  - RELEASE  -
|  1> !uks pbe nori aug-pc-4 grid7 nofinalgrid verytightscf
|  2>
|  3> %maxcore 1500
|  4>
|  5> %pal nprocs 1 end
|  6>
|  7> %scf
|  8> 	maxiter 200
|  9> end
| 10> %elprop
| 11> 	dipole true
| 12> 	 polar 1
| 13> 	 maxiter 200
| 14> end
| 15>
| 16> * xyz 0 1
| 17> C 0.0000 0.0000 0.0000
| 18> F 0.0000 0.0000 -1.2620
| 19> N 0.0000 0.0000 1.1590
| 20> *
| 21>
| 22>                          ****END OF INPUT****

CARTESIAN COORDINATES (ANGSTROEM)
---------------------------------
  C      0.000000    0.000000    0.000000
  F      0.000000    0.000000   -1.262000
  N      0.000000    0.000000    1.159000

 Total Charge           Charge          ....    0
 Multiplicity           Mult            ....    1
 Number of Electrons    NEL             ....   22
 Basis Dimension        Dim             ....  435

ORBITAL ENERGIES
----------------
                 SPIN UP ORBITALS
  NO   OCC          E(Eh)            E(eV)
   0   1.0000     -24.387625      -663.6210
   1   1.0000     -14.014112      -381.3434
   2   1.0000     -10.024978      -272.7935
   3   1.0000      -1.255730       -34.1702
   4   1.0000      -0.859997       -23.4017
   5   1.0000      -0.635351       -17.2888
   6   1.0000      -0.512335       -13.9414
   7   1.0000      -0.512335       -13.9414
   8   1.0000      -0.350758        -9.5446
   9   1.0000      -0.320604        -8.7241
  10   1.0000      -0.320604        -8.7241
  11   0.0000      -0.056732        -1.5438
  12   0.0000      -0.009182        -0.2498
  13   0.0000      -0.009182        -0.2498
  14   0.0000       0.016563         0.4507
  15   0.0000       0.016563         0.4507

                 SPIN DOWN ORBITALS
  NO   OCC          E(Eh)            E(eV)
   0   1.0000     -24.387625      -663.6210
   1   1.0000     -14.014112      -381.3434
   2   1.0000     -10.024978      -272.7935
   3   1.0000      -1.255730       -34.1702
   4   1.0000      -0.859997       -23.4017
   5   1.0000      -0.635351       -17.2888
   6   1.0000      -0.512335       -13.9414
   7   1.0000      -0.512335       -13.9414
   8   1.0000      -0.350758        -9.5446
   9   1.0000      -0.320604        -8.7241
  10   1.0000      -0.320604        -8.7241
  11   0.0000      -0.056732        -1.5438
  12   0.0000      -0.009182        -0.2498
  13   0.0000      -0.009182        -0.2498
  14   0.0000       0.016563         0.4507
  15   0.0000       0.016563         0.4507

MULLIKEN ATOMIC CHARGES AND SPIN POPULATIONS
--------------------------------------------
   0 C :    0.198694   -0.000000
   1 F :   -0.270435   -0.000000
   2 N :    0.071741    0.000000
Sum of atomic charges         :   -0.0000000

LOEWDIN ATOMIC CHARGES AND SPIN POPULATIONS
-------------------------------------------
   0 C :   -0.411618   -0.000000
   1 F :    0.250691   -0.000000
   2 N :    0.160927    0.000000

  Mayer bond orders larger than 0.1
B(  0-C ,  1-F ) :   1.0829 B(  0-C ,  2-N ) :   2.8276 B(  1-F ,  2-N ) :   0.2089

FINAL SINGLE POINT ENERGY      -192.536671956997

DIPOLE MOMENT
-------------
                                X             Y             Z
Electronic contribution:     -0.00000      -0.00000      -1.93115
Nuclear contribution   :      0.00000       0.00000       1.01728
                        -----------------------------------------
Total Dipole Moment    :     -0.00000      -0.00000      -0.91387
                        -----------------------------------------
Magnitude (a.u.)       :      0.91387
Magnitude (Debye)      :      2.32288

Rotational constants in cm-1:     0.000000     0.353105     0.353105
Rotational constants in MHz :     0.000000 10585.833831 10585.833831

                             ****ORCA TERMINATED NORMALLY****
TOTAL RUN TIME: 0 days 2 hours 54 minutes 54 seconds 229 msec
