                         Program Version 4.1.2  - RELEASE  -
|  1> !uks pbe nori aug-pc-4 grid7 nofinalgrid verytightscf
|  2>
|  3> %maxcore 1500
|  4>
|  5> %pal nprocs 1 end
|  6>
|  7> %scf
|  8> 	maxiter 200
|  9> end
| 10> %elprop
| 11> 	dipole true
| 12> 	 polar 1
| 13> 	 maxiter 200
| 14> end
| 15>
| 16> * xyz 0 2
| 17> F -1.0211 -0.4211 0.0000
| 18> C 0.0000 0.4249 0.0000
| 19> O 1.1487 0.1550 0.0000
| 20> *
| 21>
| 22>                          ****END OF INPUT****

CARTESIAN COORDINATES (ANGSTROEM)
---------------------------------
  F     -1.021100   -0.421100    0.000000
  C      0.000000    0.424900    0.000000
  O      1.148700    0.155000    0.000000

 Total Charge           Charge          ....    0
 Multiplicity           Mult            ....    2
 Number of Electrons    NEL             ....   23
 Basis Dimension        Dim             ....  435

ORBITAL ENERGIES
----------------
                 SPIN UP ORBITALS
  NO   OCC          E(Eh)            E(eV)
   0   1.0000     -24.340911      -662.3499
   1   1.0000     -18.830131      -512.3939
   2   1.0000     -10.074633      -274.1447
   3   1.0000      -1.202571       -32.7236
   4   1.0000      -1.037650       -28.2359
   5   1.0000      -0.610021       -16.5995
   6   1.0000      -0.485629       -13.2146
   7   1.0000      -0.484754       -13.1908
   8   1.0000      -0.482819       -13.1382
   9   1.0000      -0.381727       -10.3873
  10   1.0000      -0.369276       -10.0485
  11   1.0000      -0.242072        -6.5871
  12   0.0000      -0.091907        -2.5009
  13   0.0000      -0.007695        -0.2094
  14   0.0000       0.011634         0.3166
  15   0.0000       0.014441         0.3930
  16   0.0000       0.014492         0.3943

                 SPIN DOWN ORBITALS
  NO   OCC          E(Eh)            E(eV)
   0   1.0000     -24.335845      -662.2120
   1   1.0000     -18.824668      -512.2453
   2   1.0000     -10.063995      -273.8552
   3   1.0000      -1.191753       -32.4293
   4   1.0000      -1.026529       -27.9333
   5   1.0000      -0.594081       -16.1658
   6   1.0000      -0.477500       -12.9934
   7   1.0000      -0.472449       -12.8560
   8   1.0000      -0.459534       -12.5046
   9   1.0000      -0.376830       -10.2541
  10   1.0000      -0.350304        -9.5322
  11   0.0000      -0.173853        -4.7308
  12   0.0000      -0.065357        -1.7785
  13   0.0000       0.002255         0.0614
  14   0.0000       0.016971         0.4618
  15   0.0000       0.019561         0.5323

MULLIKEN ATOMIC CHARGES AND SPIN POPULATIONS
--------------------------------------------
   0 F :   -0.259489    0.088312
   1 C :    0.460417    0.638152
   2 O :   -0.200928    0.273535
Sum of atomic charges         :   -0.0000000

LOEWDIN ATOMIC CHARGES AND SPIN POPULATIONS
-------------------------------------------
   0 F :    0.115383    0.235676
   1 C :   -0.367474    0.492758
   2 O :    0.252092    0.271567

  Mayer bond orders larger than 0.1
B(  0-F ,  1-C ) :   1.0363 B(  1-C ,  2-O ) :   2.2132

FINAL SINGLE POINT ENERGY      -213.002048262528

DIPOLE MOMENT
-------------
                                X             Y             Z
Electronic contribution:     -1.23850      -0.34430      -0.00000
Nuclear contribution   :      0.94327       0.38437       0.00000
                        -----------------------------------------
Total Dipole Moment    :     -0.29523       0.04007      -0.00000
                        -----------------------------------------
Magnitude (a.u.)       :      0.29793
Magnitude (Debye)      :      0.75728

Rotational constants in cm-1:     6.148275     0.382494     0.360092
Rotational constants in MHz : 184320.655220 11466.873652 10795.282401

                             ****ORCA TERMINATED NORMALLY****
TOTAL RUN TIME: 0 days 3 hours 39 minutes 23 seconds 803 msec
