                         Program Version 4.1.2  - RELEASE  -
|  1> !uks pbe nori aug-pc-4 grid7 nofinalgrid verytightscf
|  2>
|  3> %maxcore 1500
|  4>
|  5> %pal nprocs 1 end
|  6>
|  7> %scf
|  8> 	maxiter 200
|  9> end
| 10> %elprop
| 11> 	dipole true
| 12> 	 polar 1
| 13> 	 maxiter 200
| 14> end
| 15>
| 16> * xyz 0 2
| 17> H 0.000000 0.000000 0.000000
| 18> F 0.000000 0.000000 0.927729
| 19> O 0.169084 0.000000 -1.803099
| 20> H 1.103782 0.000000 -2.068116
| 21> *
| 22>
| 23>                          ****END OF INPUT****

CARTESIAN COORDINATES (ANGSTROEM)
---------------------------------
  H      0.000000    0.000000    0.000000
  F      0.000000    0.000000    0.927729
  O      0.169084    0.000000   -1.803099
  H      1.103782    0.000000   -2.068116

 Total Charge           Charge          ....    0
 Multiplicity           Mult            ....    2
 Number of Electrons    NEL             ....   19
 Basis Dimension        Dim             ....  466

ORBITAL ENERGIES
----------------
                 SPIN UP ORBITALS
  NO   OCC          E(Eh)            E(eV)
   0   1.0000     -24.222642      -659.1316
   1   1.0000     -18.873001      -513.5605
   2   1.0000      -1.074067       -29.2268
   3   1.0000      -0.979502       -26.6536
   4   1.0000      -0.487948       -13.2777
   5   1.0000      -0.456618       -12.4252
   6   1.0000      -0.409958       -11.1555
   7   1.0000      -0.341490        -9.2924
   8   1.0000      -0.329727        -8.9723
   9   1.0000      -0.328031        -8.9262
  10   0.0000      -0.048437        -1.3180
  11   0.0000       0.010018         0.2726
  12   0.0000       0.020084         0.5465
  13   0.0000       0.020099         0.5469
  14   0.0000       0.029884         0.8132

                 SPIN DOWN ORBITALS
  NO   OCC          E(Eh)            E(eV)
   0   1.0000     -24.222359      -659.1239
   1   1.0000     -18.849400      -512.9182
   2   1.0000      -1.073411       -29.2090
   3   1.0000      -0.922252       -25.0958
   4   1.0000      -0.478787       -13.0285
   5   1.0000      -0.442421       -12.0389
   6   1.0000      -0.329663        -8.9706
   7   1.0000      -0.329007        -8.9527
   8   1.0000      -0.317857        -8.6493
   9   0.0000      -0.279454        -7.6043
  10   0.0000      -0.042715        -1.1623
  11   0.0000       0.010749         0.2925
  12   0.0000       0.020673         0.5625
  13   0.0000       0.026430         0.7192

MULLIKEN ATOMIC CHARGES AND SPIN POPULATIONS
--------------------------------------------
   0 H :    0.278612   -0.016278
   1 F :   -0.302758    0.015840
   2 O :   -0.194424    0.993589
   3 H :    0.218571    0.006849
Sum of atomic charges         :   -0.0000000

LOEWDIN ATOMIC CHARGES AND SPIN POPULATIONS
-------------------------------------------
   0 H :   -1.213052    0.033866
   1 F :    0.977740    0.021078
   2 O :    0.995772    0.783238
   3 H :   -0.760460    0.161818

  Mayer bond orders larger than 0.1
B(  0-H ,  1-F ) :   0.9137 B(  0-H ,  2-O ) :   0.1256 B(  1-F ,  2-O ) :  -0.1039
B(  2-O ,  3-H ) :   1.0237

FINAL SINGLE POINT ENERGY      -176.103612525865

DIPOLE MOMENT
-------------
                                X             Y             Z
Electronic contribution:     -0.29347       0.00000       1.36763
Nuclear contribution   :      0.93855       0.00000      -2.47969
                        -----------------------------------------
Total Dipole Moment    :      0.64507       0.00000      -1.11205
                        -----------------------------------------
Magnitude (a.u.)       :      1.28561
Magnitude (Debye)      :      3.26775

Rotational constants in cm-1:    21.356998     0.246472     0.243660
Rotational constants in MHz : 640266.678212  7389.040107  7304.739279

                             ****ORCA TERMINATED NORMALLY****
TOTAL RUN TIME: 0 days 2 hours 44 minutes 22 seconds 715 msec
