                         Program Version 4.1.2  - RELEASE  -
|  1> !uks pbe nori aug-pc-4 grid7 nofinalgrid verytightscf
|  2>
|  3> %maxcore 1500
|  4>
|  5> %pal nprocs 1 end
|  6>
|  7> %scf
|  8> 	maxiter 200
|  9> end
| 10> %elprop
| 11> 	dipole true
| 12> 	 polar 1
| 13> 	 maxiter 200
| 14> end
| 15>
| 16> * xyz 0 2
| 17> C 0.0000000000 0.0000000000 -0.4906000000
| 18> N 0.0000000000 0.0000000000 0.7226000000
| 19> H 0.0000000000 0.9342000000 -1.0572000000
| 20> H 0.0000000000 -0.9342000000 -1.0572000000
| 21> *
| 22>
| 23>                          ****END OF INPUT****

CARTESIAN COORDINATES (ANGSTROEM)
---------------------------------
  C      0.000000    0.000000   -0.490600
  N      0.000000    0.000000    0.722600
  H      0.000000    0.934200   -1.057200
  H      0.000000   -0.934200   -1.057200

 Total Charge           Charge          ....    0
 Multiplicity           Mult            ....    2
 Number of Electrons    NEL             ....   15
 Basis Dimension        Dim             ....  466

ORBITAL ENERGIES
----------------
                 SPIN UP ORBITALS
  NO   OCC          E(Eh)            E(eV)
   0   1.0000     -14.016822      -381.4171
   1   1.0000      -9.930550      -270.2240
   2   1.0000      -0.851660       -23.1749
   3   1.0000      -0.552480       -15.0338
   4   1.0000      -0.455345       -12.3906
   5   1.0000      -0.335440        -9.1278
   6   1.0000      -0.328048        -8.9266
   7   1.0000      -0.222923        -6.0660
   8   0.0000      -0.060235        -1.6391
   9   0.0000      -0.018424        -0.5013
  10   0.0000       0.006980         0.1899
  11   0.0000       0.012315         0.3351
  12   0.0000       0.017635         0.4799

                 SPIN DOWN ORBITALS
  NO   OCC          E(Eh)            E(eV)
   0   1.0000     -13.999636      -380.9495
   1   1.0000      -9.932479      -270.2765
   2   1.0000      -0.824719       -22.4417
   3   1.0000      -0.537364       -14.6224
   4   1.0000      -0.433565       -11.7979
   5   1.0000      -0.318882        -8.6772
   6   1.0000      -0.314379        -8.5547
   7   0.0000      -0.141759        -3.8575
   8   0.0000      -0.052124        -1.4184
   9   0.0000      -0.012803        -0.3484
  10   0.0000       0.011828         0.3219
  11   0.0000       0.015618         0.4250

MULLIKEN ATOMIC CHARGES AND SPIN POPULATIONS
--------------------------------------------
   0 C :   -0.004388   -0.108650
   1 N :   -0.131515    0.922030
   2 H :    0.067942    0.093357
   3 H :    0.067960    0.093263
Sum of atomic charges         :    0.0000000

LOEWDIN ATOMIC CHARGES AND SPIN POPULATIONS
-------------------------------------------
   0 C :    0.426272    0.207015
   1 N :    0.500432    0.637794
   2 H :   -0.463352    0.077595
   3 H :   -0.463352    0.077595

  Mayer bond orders larger than 0.1
B(  0-C ,  1-N ) :   2.1782 B(  0-C ,  2-H ) :   0.9413 B(  0-C ,  3-H ) :   0.9413

FINAL SINGLE POINT ENERGY       -93.906379027318

DIPOLE MOMENT
-------------
                                X             Y             Z
Electronic contribution:     -0.00000       0.00000       1.15012
Nuclear contribution   :      0.00000       0.00000      -2.12050
                        -----------------------------------------
Total Dipole Moment    :     -0.00000       0.00000      -0.97038
                        -----------------------------------------
Magnitude (a.u.)       :      0.97038
Magnitude (Debye)      :      2.46652

Rotational constants in cm-1:     9.581349     1.370433     1.198946
Rotational constants in MHz : 287241.608660 41084.561275 35943.511521

                             ****ORCA TERMINATED NORMALLY****
TOTAL RUN TIME: 0 days 3 hours 35 minutes 29 seconds 791 msec
