                         Program Version 4.1.2  - RELEASE  -
|  1> !uks pbe nori aug-pc-4 grid7 nofinalgrid verytightscf
|  2>
|  3> %maxcore 1500
|  4>
|  5> %pal nprocs 1 end
|  6>
|  7> %scf
|  8> 	maxiter 200
|  9> end
| 10> %elprop
| 11> 	dipole true
| 12> 	 polar 1
| 13> 	 maxiter 200
| 14> end
| 15>
| 16> * xyz 0 2
| 17> Li 0.000000 0.000000 0.000000
| 18> O 0.000000 0.000000 1.876166
| 19> H 0.835500 0.000000 2.357191
| 20> H -0.587326 0.594229 2.357191
| 21> *
| 22>
| 23>                          ****END OF INPUT****

CARTESIAN COORDINATES (ANGSTROEM)
---------------------------------
  Li     0.000000    0.000000    0.000000
  O      0.000000    0.000000    1.876166
  H      0.835500    0.000000    2.357191
  H     -0.587326    0.594229    2.357191

 Total Charge           Charge          ....    0
 Multiplicity           Mult            ....    2
 Number of Electrons    NEL             ....   13
 Basis Dimension        Dim             ....  404

ORBITAL ENERGIES
----------------
                 SPIN UP ORBITALS
  NO   OCC          E(Eh)            E(eV)
   0   1.0000     -18.810364      -511.8560
   1   1.0000      -1.870066       -50.8871
   2   1.0000      -0.986487       -26.8437
   3   1.0000      -0.541034       -14.7223
   4   1.0000      -0.421472       -11.4688
   5   1.0000      -0.331177        -9.0118
   6   1.0000      -0.098747        -2.6870
   7   0.0000      -0.058140        -1.5821
   8   0.0000      -0.041853        -1.1389
   9   0.0000      -0.032607        -0.8873
  10   0.0000      -0.006776        -0.1844
  11   0.0000      -0.003369        -0.0917

                 SPIN DOWN ORBITALS
  NO   OCC          E(Eh)            E(eV)
   0   1.0000     -18.809684      -511.8375
   1   1.0000      -1.864845       -50.7450
   2   1.0000      -0.984756       -26.7966
   3   1.0000      -0.538409       -14.6508
   4   1.0000      -0.419708       -11.4208
   5   1.0000      -0.329377        -8.9628
   6   0.0000      -0.062104        -1.6899
   7   0.0000      -0.006202        -0.1688
   8   0.0000      -0.002768        -0.0753
   9   0.0000       0.005130         0.1396
  10   0.0000       0.010321         0.2809

MULLIKEN ATOMIC CHARGES AND SPIN POPULATIONS
--------------------------------------------
   0 Li:   -0.175288    0.906810
   1 O :   -0.015606   -0.174111
   2 H :    0.095434    0.133659
   3 H :    0.095461    0.133642
Sum of atomic charges         :    0.0000000

LOEWDIN ATOMIC CHARGES AND SPIN POPULATIONS
-------------------------------------------
   0 Li:    0.113042    0.563666
   1 O :    1.366104    0.121542
   2 H :   -0.739573    0.157396
   3 H :   -0.739573    0.157396

  Mayer bond orders larger than 0.1
B(  0-Li,  2-H ) :   0.2794 B(  0-Li,  3-H ) :   0.2793 B(  1-O ,  2-H ) :   0.8497
B(  1-O ,  3-H ) :   0.8498

FINAL SINGLE POINT ENERGY       -83.873211664703

DIPOLE MOMENT
-------------
                                X             Y             Z
Electronic contribution:     -0.18467      -0.44217      -2.10809
Nuclear contribution   :      0.22273       0.53330       3.04627
                        -----------------------------------------
Total Dipole Moment    :      0.03806       0.09113       0.93818
                        -----------------------------------------
Magnitude (a.u.)       :      0.94337
Magnitude (Debye)      :      2.39785

Rotational constants in cm-1:    12.307592     0.874816     0.830557
Rotational constants in MHz : 368972.319929 26226.314160 24899.457754

                             ****ORCA TERMINATED NORMALLY****
TOTAL RUN TIME: 0 days 1 hours 59 minutes 45 seconds 617 msec
