                         Program Version 4.1.2  - RELEASE  -
|  1> !uks pbe nori aug-pc-4 grid7 nofinalgrid verytightscf
|  2>
|  3> %maxcore 1500
|  4>
|  5> %pal nprocs 1 end
|  6>
|  7> %scf
|  8> 	maxiter 200
|  9> end
| 10> %elprop
| 11> 	dipole true
| 12> 	 polar 1
| 13> 	 maxiter 200
| 14> end
| 15>
| 16> * xyz 0 1
| 17> O 0.0000 0.0000 0.1173
| 18> H 0.0000 0.7572 -0.4692
| 19> H 0.0000 -0.7572 -0.4692
| 20> *
| 21>
| 22>                          ****END OF INPUT****

CARTESIAN COORDINATES (ANGSTROEM)
---------------------------------
  O      0.000000    0.000000    0.117300
  H      0.000000    0.757200   -0.469200
  H      0.000000   -0.757200   -0.469200

 Total Charge           Charge          ....    0
 Multiplicity           Mult            ....    1
 Number of Electrons    NEL             ....   10
 Basis Dimension        Dim             ....  321

ORBITAL ENERGIES
----------------
                 SPIN UP ORBITALS
  NO   OCC          E(Eh)            E(eV)
   0   1.0000     -18.755032      -510.3504
   1   1.0000      -0.932050       -25.3624
   2   1.0000      -0.485291       -13.2054
   3   1.0000      -0.343258        -9.3405
   4   1.0000      -0.266532        -7.2527
   5   0.0000      -0.034458        -0.9376
   6   0.0000       0.012269         0.3338
   7   0.0000       0.030605         0.8328
   8   0.0000       0.030922         0.8414
   9   0.0000       0.038712         1.0534

                 SPIN DOWN ORBITALS
  NO   OCC          E(Eh)            E(eV)
   0   1.0000     -18.755032      -510.3504
   1   1.0000      -0.932050       -25.3624
   2   1.0000      -0.485291       -13.2054
   3   1.0000      -0.343258        -9.3405
   4   1.0000      -0.266532        -7.2527
   5   0.0000      -0.034458        -0.9376
   6   0.0000       0.012269         0.3338
   7   0.0000       0.030605         0.8328
   8   0.0000       0.030922         0.8414
   9   0.0000       0.038712         1.0534

MULLIKEN ATOMIC CHARGES AND SPIN POPULATIONS
--------------------------------------------
   0 O :   -0.361429   -0.000000
   1 H :    0.180702   -0.000000
   2 H :    0.180726    0.000000
Sum of atomic charges         :    0.0000000

LOEWDIN ATOMIC CHARGES AND SPIN POPULATIONS
-------------------------------------------
   0 O :    1.372954   -0.000000
   1 H :   -0.686477   -0.000000
   2 H :   -0.686477    0.000000

  Mayer bond orders larger than 0.1
B(  0-O ,  1-H ) :   1.0589 B(  0-O ,  2-H ) :   1.0588

FINAL SINGLE POINT ENERGY       -76.388517647331

DIPOLE MOMENT
-------------
                                X             Y             Z
Electronic contribution:      0.00000       0.00000       0.26997
Nuclear contribution   :      0.00000       0.00000      -0.97636
                        -----------------------------------------
Total Dipole Moment    :      0.00000       0.00000      -0.70639
                        -----------------------------------------
Magnitude (a.u.)       :      0.70639
Magnitude (Debye)      :      1.79550

Rotational constants in cm-1:    27.372330    14.584286     9.514730
Rotational constants in MHz : 820601.811463 437225.885101 285244.437146

                             ****ORCA TERMINATED NORMALLY****
TOTAL RUN TIME: 0 days 0 hours 36 minutes 7 seconds 539 msec
