                         Program Version 4.1.2  - RELEASE  -
|  1> !uks pbe nori aug-pc-4 grid7 nofinalgrid verytightscf
|  2>
|  3> %maxcore 1500
|  4>
|  5> %pal nprocs 1 end
|  6>
|  7> %scf
|  8> 	maxiter 200
|  9> end
| 10> %elprop
| 11> 	dipole true
| 12> 	 polar 1
| 13> 	 maxiter 200
| 14> end
| 15>
| 16> * xyz 0 1
| 17> B 0.0000 0.0000 1.1660
| 18> H 0.0000 0.0000 0.0000
| 19> O 0.0000 0.0000 2.3660
| 20> *
| 21>
| 22>                          ****END OF INPUT****

CARTESIAN COORDINATES (ANGSTROEM)
---------------------------------
  B      0.000000    0.000000    1.166000
  H      0.000000    0.000000    0.000000
  O      0.000000    0.000000    2.366000

 Total Charge           Charge          ....    0
 Multiplicity           Mult            ....    1
 Number of Electrons    NEL             ....   14
 Basis Dimension        Dim             ....  378

ORBITAL ENERGIES
----------------
                 SPIN UP ORBITALS
  NO   OCC          E(Eh)            E(eV)
   0   1.0000     -18.761048      -510.5141
   1   1.0000      -6.543794      -178.0657
   2   1.0000      -0.909262       -24.7423
   3   1.0000      -0.444790       -12.1034
   4   1.0000      -0.366852        -9.9826
   5   1.0000      -0.328066        -8.9271
   6   1.0000      -0.328066        -8.9271
   7   0.0000      -0.042779        -1.1641
   8   0.0000      -0.042779        -1.1641
   9   0.0000      -0.007559        -0.2057
  10   0.0000      -0.002494        -0.0679
  11   0.0000       0.017574         0.4782

                 SPIN DOWN ORBITALS
  NO   OCC          E(Eh)            E(eV)
   0   1.0000     -18.761048      -510.5141
   1   1.0000      -6.543794      -178.0657
   2   1.0000      -0.909262       -24.7423
   3   1.0000      -0.444790       -12.1034
   4   1.0000      -0.366852        -9.9826
   5   1.0000      -0.328066        -8.9271
   6   1.0000      -0.328066        -8.9271
   7   0.0000      -0.042779        -1.1641
   8   0.0000      -0.042779        -1.1641
   9   0.0000      -0.007559        -0.2057
  10   0.0000      -0.002494        -0.0679
  11   0.0000       0.017574         0.4782

MULLIKEN ATOMIC CHARGES AND SPIN POPULATIONS
--------------------------------------------
   0 B :    0.191542   -0.000000
   1 H :    0.128707   -0.000000
   2 O :   -0.320249    0.000000
Sum of atomic charges         :   -0.0000000

LOEWDIN ATOMIC CHARGES AND SPIN POPULATIONS
-------------------------------------------
   0 B :    0.000858   -0.000000
   1 H :   -0.389302   -0.000000
   2 O :    0.388444    0.000000

  Mayer bond orders larger than 0.1
B(  0-B ,  1-H ) :   1.0525 B(  0-B ,  2-O ) :   2.0092

FINAL SINGLE POINT ENERGY      -100.637288873880

DIPOLE MOMENT
-------------
                                X             Y             Z
Electronic contribution:     -0.00000       0.00000       0.18660
Nuclear contribution   :      0.00000       0.00000      -1.20380
                        -----------------------------------------
Total Dipole Moment    :     -0.00000       0.00000      -1.01720
                        -----------------------------------------
Magnitude (a.u.)       :      1.01720
Magnitude (Debye)      :      2.58551

Rotational constants in cm-1:     0.000000     1.324137     1.324137
Rotational constants in MHz :     0.000000 39696.630725 39696.630725

                             ****ORCA TERMINATED NORMALLY****
TOTAL RUN TIME: 0 days 1 hours 24 minutes 39 seconds 856 msec
