                         Program Version 4.1.2  - RELEASE  -
|  1> !uks pbe nori aug-pc-4 grid7 nofinalgrid verytightscf
|  2>
|  3> %maxcore 1500
|  4>
|  5> %pal nprocs 1 end
|  6>
|  7> %scf
|  8> 	maxiter 200
|  9> end
| 10> %elprop
| 11> 	dipole true
| 12> 	 polar 1
| 13> 	 maxiter 200
| 14> end
| 15>
| 16> * xyz 0 1
| 17> B 0.0000 0.0000 0.0000
| 18> H 0.0000 0.0000 1.1692
| 19> S 0.0000 0.0000 -1.5995
| 20> *
| 21>
| 22>                          ****END OF INPUT****

CARTESIAN COORDINATES (ANGSTROEM)
---------------------------------
  B      0.000000    0.000000    0.000000
  H      0.000000    0.000000    1.169200
  S      0.000000    0.000000   -1.599500

 Total Charge           Charge          ....    0
 Multiplicity           Mult            ....    1
 Number of Electrons    NEL             ....   22
 Basis Dimension        Dim             ....  374

ORBITAL ENERGIES
----------------
                 SPIN UP ORBITALS
  NO   OCC          E(Eh)            E(eV)
   0   1.0000     -88.032672     -2395.4908
   1   1.0000      -7.674766      -208.8410
   2   1.0000      -6.562411      -178.5723
   3   1.0000      -5.691314      -154.8685
   4   1.0000      -5.691314      -154.8685
   5   1.0000      -5.690870      -154.8565
   6   1.0000      -0.666084       -18.1251
   7   1.0000      -0.434947       -11.8355
   8   1.0000      -0.343792        -9.3550
   9   1.0000      -0.272659        -7.4194
  10   1.0000      -0.272659        -7.4194
  11   0.0000      -0.080237        -2.1834
  12   0.0000      -0.080237        -2.1834
  13   0.0000      -0.010237        -0.2786
  14   0.0000       0.001315         0.0358
  15   0.0000       0.011713         0.3187

                 SPIN DOWN ORBITALS
  NO   OCC          E(Eh)            E(eV)
   0   1.0000     -88.032672     -2395.4908
   1   1.0000      -7.674766      -208.8410
   2   1.0000      -6.562411      -178.5723
   3   1.0000      -5.691314      -154.8685
   4   1.0000      -5.691314      -154.8685
   5   1.0000      -5.690870      -154.8565
   6   1.0000      -0.666084       -18.1251
   7   1.0000      -0.434947       -11.8355
   8   1.0000      -0.343792        -9.3550
   9   1.0000      -0.272659        -7.4194
  10   1.0000      -0.272659        -7.4194
  11   0.0000      -0.080237        -2.1834
  12   0.0000      -0.080237        -2.1834
  13   0.0000      -0.010237        -0.2786
  14   0.0000       0.001315         0.0358
  15   0.0000       0.011713         0.3187

MULLIKEN ATOMIC CHARGES AND SPIN POPULATIONS
--------------------------------------------
   0 B :   -0.108309    0.000000
   1 H :    0.162867   -0.000000
   2 S :   -0.054557    0.000000
Sum of atomic charges         :   -0.0000000

LOEWDIN ATOMIC CHARGES AND SPIN POPULATIONS
-------------------------------------------
   0 B :   -0.305145   -0.000000
   1 H :   -0.660266   -0.000000
   2 S :    0.965410    0.000000

  Mayer bond orders larger than 0.1
B(  0-B ,  1-H ) :   0.9264 B(  0-B ,  2-S ) :   2.3667 B(  1-H ,  2-S ) :  -0.1385

FINAL SINGLE POINT ENERGY      -423.471433479459

DIPOLE MOMENT
-------------
                                X             Y             Z
Electronic contribution:     -0.00000      -0.00000      -0.83557
Nuclear contribution   :      0.00000       0.00000       1.31820
                        -----------------------------------------
Total Dipole Moment    :     -0.00000      -0.00000       0.48263
                        -----------------------------------------
Magnitude (a.u.)       :      0.48263
Magnitude (Debye)      :      1.22675

Rotational constants in cm-1:     0.000000     0.643600     0.643600
Rotational constants in MHz :     0.000000 19294.633300 19294.633300

                             ****ORCA TERMINATED NORMALLY****
TOTAL RUN TIME: 0 days 1 hours 51 minutes 0 seconds 817 msec
