                         Program Version 4.1.2  - RELEASE  -
|  1> !uks pbe nori aug-pc-4 grid7 nofinalgrid verytightscf
|  2>
|  3> %maxcore 1500
|  4>
|  5> %pal nprocs 4 end
|  6>
|  7> %scf
|  8> 	maxiter 200
|  9> end
| 10> %elprop
| 11> 	dipole true
| 12> 	 polar 1
| 13> 	 maxiter 200
| 14> end
| 15>
| 16> * xyz 0 1
| 17> C 0.0000 0.0000 -1.8149
| 18> C 0.0000 0.0000 -0.6116
| 19> Cl 0.0000 0.0000 1.0252
| 20> H 0.0000 0.0000 -2.8699
| 21> *
| 22>
| 23>                          ****END OF INPUT****

CARTESIAN COORDINATES (ANGSTROEM)
---------------------------------
  C      0.000000    0.000000   -1.814900
  C      0.000000    0.000000   -0.611600
  Cl     0.000000    0.000000    1.025200
  H      0.000000    0.000000   -2.869900

 Total Charge           Charge          ....    0
 Multiplicity           Mult            ....    1
 Number of Electrons    NEL             ....   30
 Basis Dimension        Dim             ....  519

ORBITAL ENERGIES
----------------
                 SPIN UP ORBITALS
  NO   OCC          E(Eh)            E(eV)
   0   1.0000    -100.703871     -2740.2916
   1   1.0000      -9.943198      -270.5682
   2   1.0000      -9.898234      -269.3446
   3   1.0000      -9.226277      -251.0598
   4   1.0000      -7.049656      -191.8309
   5   1.0000      -7.038607      -191.5302
   6   1.0000      -7.038607      -191.5302
   7   1.0000      -0.839028       -22.8311
   8   1.0000      -0.682031       -18.5590
   9   1.0000      -0.510128       -13.8813
  10   1.0000      -0.460624       -12.5342
  11   1.0000      -0.361344        -9.8327
  12   1.0000      -0.361344        -9.8327
  13   1.0000      -0.249259        -6.7827
  14   1.0000      -0.249259        -6.7827
  15   0.0000      -0.030670        -0.8346
  16   0.0000      -0.017741        -0.4828
  17   0.0000      -0.017741        -0.4828
  18   0.0000      -0.005018        -0.1365
  19   0.0000       0.004451         0.1211

                 SPIN DOWN ORBITALS
  NO   OCC          E(Eh)            E(eV)
   0   1.0000    -100.703871     -2740.2916
   1   1.0000      -9.943198      -270.5682
   2   1.0000      -9.898234      -269.3446
   3   1.0000      -9.226277      -251.0598
   4   1.0000      -7.049656      -191.8309
   5   1.0000      -7.038607      -191.5302
   6   1.0000      -7.038607      -191.5302
   7   1.0000      -0.839028       -22.8311
   8   1.0000      -0.682031       -18.5590
   9   1.0000      -0.510128       -13.8813
  10   1.0000      -0.460624       -12.5342
  11   1.0000      -0.361344        -9.8327
  12   1.0000      -0.361344        -9.8327
  13   1.0000      -0.249259        -6.7827
  14   1.0000      -0.249259        -6.7827
  15   0.0000      -0.030670        -0.8346
  16   0.0000      -0.017741        -0.4828
  17   0.0000      -0.017741        -0.4828
  18   0.0000      -0.005018        -0.1365
  19   0.0000       0.004451         0.1211

MULLIKEN ATOMIC CHARGES AND SPIN POPULATIONS
--------------------------------------------
   0 C :   -0.008725   -0.000000
   1 C :    0.006358   -0.000000
   2 Cl:   -0.007271    0.000000
   3 H :    0.009637    0.000000
Sum of atomic charges         :   -0.0000000

LOEWDIN ATOMIC CHARGES AND SPIN POPULATIONS
-------------------------------------------
   0 C :    0.082964   -0.000000
   1 C :   -0.653624   -0.000000
   2 Cl:    1.113244    0.000000
   3 H :   -0.542584    0.000000

  Mayer bond orders larger than 0.1
B(  0-C ,  1-C ) :   2.8351 B(  0-C ,  2-Cl) :   0.4768 B(  0-C ,  3-H ) :   0.9930
B(  1-C ,  2-Cl) :   1.1773 B(  1-C ,  3-H ) :   0.1618

FINAL SINGLE POINT ENERGY      -536.702676968890

DIPOLE MOMENT
-------------
                                X             Y             Z
Electronic contribution:      0.00000      -0.00000       3.93560
Nuclear contribution   :      0.00000       0.00000      -4.03972
                        -----------------------------------------
Total Dipole Moment    :      0.00000      -0.00000      -0.10412
                        -----------------------------------------
Magnitude (a.u.)       :      0.10412
Magnitude (Debye)      :      0.26465

Rotational constants in cm-1:     0.000000     0.188748     0.188748
Rotational constants in MHz :     0.000000  5658.524712  5658.524712

                             ****ORCA TERMINATED NORMALLY****
TOTAL RUN TIME: 0 days 1 hours 31 minutes 9 seconds 801 msec
