                         Program Version 4.1.2  - RELEASE  -
|  1> !uks pbe nori aug-pc-4 grid7 nofinalgrid verytightscf
|  2>
|  3> %maxcore 1500
|  4>
|  5> %pal nprocs 1 end
|  6>
|  7> %scf
|  8> 	maxiter 200
|  9> end
| 10> %elprop
| 11> 	dipole true
| 12> 	 polar 1
| 13> 	 maxiter 200
| 14> end
| 15>
| 16> * xyz 0 1
| 17> O 0.0000 0.0000 1.2050
| 18> C 0.0000 0.0000 0.0000
| 19> H 0.0000 0.9429 -0.5876
| 20> H 0.0000 -0.9429 -0.5876
| 21> *
| 22>
| 23>                          ****END OF INPUT****

CARTESIAN COORDINATES (ANGSTROEM)
---------------------------------
  O      0.000000    0.000000    1.205000
  C      0.000000    0.000000    0.000000
  H      0.000000    0.942900   -0.587600
  H      0.000000   -0.942900   -0.587600

 Total Charge           Charge          ....    0
 Multiplicity           Mult            ....    1
 Number of Electrons    NEL             ....   16
 Basis Dimension        Dim             ....  466

ORBITAL ENERGIES
----------------
                 SPIN UP ORBITALS
  NO   OCC          E(Eh)            E(eV)
   0   1.0000     -18.773339      -510.8485
   1   1.0000      -9.983594      -271.6674
   2   1.0000      -0.980094       -26.6697
   3   1.0000      -0.577749       -15.7213
   4   1.0000      -0.447453       -12.1758
   5   1.0000      -0.404328       -11.0023
   6   1.0000      -0.371480       -10.1085
   7   1.0000      -0.230155        -6.2628
   8   0.0000      -0.098728        -2.6865
   9   0.0000      -0.016955        -0.4614
  10   0.0000       0.009956         0.2709
  11   0.0000       0.011824         0.3217
  12   0.0000       0.018520         0.5039

                 SPIN DOWN ORBITALS
  NO   OCC          E(Eh)            E(eV)
   0   1.0000     -18.773339      -510.8485
   1   1.0000      -9.983594      -271.6674
   2   1.0000      -0.980094       -26.6697
   3   1.0000      -0.577749       -15.7213
   4   1.0000      -0.447453       -12.1758
   5   1.0000      -0.404328       -11.0023
   6   1.0000      -0.371480       -10.1085
   7   1.0000      -0.230155        -6.2628
   8   0.0000      -0.098728        -2.6865
   9   0.0000      -0.016955        -0.4614
  10   0.0000       0.009956         0.2709
  11   0.0000       0.011824         0.3217
  12   0.0000       0.018520         0.5039

MULLIKEN ATOMIC CHARGES AND SPIN POPULATIONS
--------------------------------------------
   0 O :   -0.214107    0.000000
   1 C :    0.311685   -0.000000
   2 H :   -0.048796    0.000000
   3 H :   -0.048782   -0.000000
Sum of atomic charges         :   -0.0000000

LOEWDIN ATOMIC CHARGES AND SPIN POPULATIONS
-------------------------------------------
   0 O :    0.492808   -0.000000
   1 C :    0.342778   -0.000000
   2 H :   -0.417793    0.000000
   3 H :   -0.417793    0.000000

  Mayer bond orders larger than 0.1
B(  0-O ,  1-C ) :   1.9749 B(  1-C ,  2-H ) :   1.0354 B(  1-C ,  3-H ) :   1.0354

FINAL SINGLE POINT ENERGY      -114.429248982052

DIPOLE MOMENT
-------------
                                X             Y             Z
Electronic contribution:     -0.00000       0.00000       1.35014
Nuclear contribution   :      0.00000       0.00000      -2.22436
                        -----------------------------------------
Total Dipole Moment    :     -0.00000       0.00000      -0.87422
                        -----------------------------------------
Magnitude (a.u.)       :      0.87422
Magnitude (Debye)      :      2.22209

Rotational constants in cm-1:     9.405353     1.294438     1.137839
Rotational constants in MHz : 281965.390539 38806.263246 34111.565166

                             ****ORCA TERMINATED NORMALLY****
TOTAL RUN TIME: 0 days 2 hours 59 minutes 52 seconds 776 msec
