                         Program Version 4.1.2  - RELEASE  -
|  1> !uks pbe nori aug-pc-4 grid7 nofinalgrid verytightscf
|  2>
|  3> %maxcore 1500
|  4>
|  5> %pal nprocs 1 end
|  6>
|  7> %scf
|  8> 	maxiter 200
|  9> end
| 10> %elprop
| 11> 	dipole true
| 12> 	 polar 1
| 13> 	 maxiter 200
| 14> end
| 15>
| 16> * xyz 0 2
| 17> C 0.0000 0.0000 0.0000
| 18> H 1.0800 0.0000 0.0000
| 19> O -0.5899 1.0427 0.0000
| 20> *
| 21>
| 22>                          ****END OF INPUT****

CARTESIAN COORDINATES (ANGSTROEM)
---------------------------------
  C      0.000000    0.000000    0.000000
  H      1.080000    0.000000    0.000000
  O     -0.589900    1.042700    0.000000

 Total Charge           Charge          ....    0
 Multiplicity           Mult            ....    2
 Number of Electrons    NEL             ....   15
 Basis Dimension        Dim             ....  378

ORBITAL ENERGIES
----------------
                 SPIN UP ORBITALS
  NO   OCC          E(Eh)            E(eV)
   0   1.0000     -18.821967      -512.1718
   1   1.0000      -9.991792      -271.8905
   2   1.0000      -1.016920       -27.6718
   3   1.0000      -0.570844       -15.5334
   4   1.0000      -0.450105       -12.2480
   5   1.0000      -0.395835       -10.7712
   6   1.0000      -0.385149       -10.4804
   7   1.0000      -0.189612        -5.1596
   8   0.0000      -0.105165        -2.8617
   9   0.0000      -0.015187        -0.4133
  10   0.0000       0.011024         0.3000
  11   0.0000       0.013083         0.3560
  12   0.0000       0.017555         0.4777

                 SPIN DOWN ORBITALS
  NO   OCC          E(Eh)            E(eV)
   0   1.0000     -18.814131      -511.9585
   1   1.0000      -9.983314      -271.6598
   2   1.0000      -1.003836       -27.3158
   3   1.0000      -0.550014       -14.9666
   4   1.0000      -0.432251       -11.7622
   5   1.0000      -0.388171       -10.5627
   6   1.0000      -0.347856        -9.4656
   7   0.0000      -0.127227        -3.4620
   8   0.0000      -0.088882        -2.4186
   9   0.0000      -0.005861        -0.1595
  10   0.0000       0.014944         0.4066
  11   0.0000       0.021239         0.5779

MULLIKEN ATOMIC CHARGES AND SPIN POPULATIONS
--------------------------------------------
   0 C :    0.154490    0.446491
   1 H :    0.031145    0.181078
   2 O :   -0.185635    0.372431
Sum of atomic charges         :   -0.0000000

LOEWDIN ATOMIC CHARGES AND SPIN POPULATIONS
-------------------------------------------
   0 C :    0.215211    0.481238
   1 H :   -0.571032    0.152311
   2 O :    0.355821    0.366452

  Mayer bond orders larger than 0.1
B(  0-C ,  1-H ) :   0.9879 B(  0-C ,  2-O ) :   2.2690

FINAL SINGLE POINT ENERGY      -113.782363505321

DIPOLE MOMENT
-------------
                                X             Y             Z
Electronic contribution:     -0.70265       0.32784      -0.00000
Nuclear contribution   :      1.27870      -0.53243       0.00000
                        -----------------------------------------
Total Dipole Moment    :      0.57605      -0.20459      -0.00000
                        -----------------------------------------
Magnitude (a.u.)       :      0.61130
Magnitude (Debye)      :      1.55380

Rotational constants in cm-1:    22.707377     1.478412     1.388041
Rotational constants in MHz : 680750.036446 44321.680166 41612.415293

                             ****ORCA TERMINATED NORMALLY****
TOTAL RUN TIME: 0 days 1 hours 37 minutes 20 seconds 567 msec
