                         Program Version 4.1.2  - RELEASE  -
|  1> !uks pbe nori aug-pc-4 grid7 nofinalgrid verytightscf
|  2>
|  3> %maxcore 1500
|  4>
|  5> %pal nprocs 4 end
|  6>
|  7> %scf
|  8> 	maxiter 200
|  9> end
| 10> %elprop
| 11> 	dipole true
| 12> 	 polar 1
| 13> 	 maxiter 200
| 14> end
| 15>
| 16> * xyz 0 1
| 17> C 0.0000 0.4165 0.0000
| 18> O 1.1942 0.2217 0.0000
| 19> N -0.9373 -0.5551 0.0000
| 20> H -0.4299 1.4182 0.0000
| 21> H -0.6608 -1.5171 0.0000
| 22> H -1.9020 -0.2881 0.0000
| 23> *
| 24>
| 25>                          ****END OF INPUT****

CARTESIAN COORDINATES (ANGSTROEM)
---------------------------------
  C      0.000000    0.416500    0.000000
  O      1.194200    0.221700    0.000000
  N     -0.937300   -0.555100    0.000000
  H     -0.429900    1.418200    0.000000
  H     -0.660800   -1.517100    0.000000
  H     -1.902000   -0.288100    0.000000

 Total Charge           Charge          ....    0
 Multiplicity           Mult            ....    1
 Number of Electrons    NEL             ....   24
 Basis Dimension        Dim             ....  699

ORBITAL ENERGIES
----------------
                 SPIN UP ORBITALS
  NO   OCC          E(Eh)            E(eV)
   0   1.0000     -18.724373      -509.5161
   1   1.0000     -14.020695      -381.5225
   2   1.0000      -9.979633      -271.5596
   3   1.0000      -0.957430       -26.0530
   4   1.0000      -0.844227       -22.9726
   5   1.0000      -0.577989       -15.7279
   6   1.0000      -0.516301       -14.0493
   7   1.0000      -0.441745       -12.0205
   8   1.0000      -0.372320       -10.1313
   9   1.0000      -0.369475       -10.0539
  10   1.0000      -0.250731        -6.8227
  11   1.0000      -0.221092        -6.0162
  12   0.0000      -0.030593        -0.8325
  13   0.0000      -0.029493        -0.8026
  14   0.0000      -0.006351        -0.1728
  15   0.0000       0.010677         0.2905
  16   0.0000       0.012431         0.3383

                 SPIN DOWN ORBITALS
  NO   OCC          E(Eh)            E(eV)
   0   1.0000     -18.724373      -509.5161
   1   1.0000     -14.020695      -381.5225
   2   1.0000      -9.979633      -271.5596
   3   1.0000      -0.957430       -26.0530
   4   1.0000      -0.844227       -22.9726
   5   1.0000      -0.577989       -15.7279
   6   1.0000      -0.516301       -14.0493
   7   1.0000      -0.441745       -12.0205
   8   1.0000      -0.372320       -10.1313
   9   1.0000      -0.369475       -10.0539
  10   1.0000      -0.250731        -6.8227
  11   1.0000      -0.221092        -6.0162
  12   0.0000      -0.030593        -0.8325
  13   0.0000      -0.029493        -0.8026
  14   0.0000      -0.006351        -0.1728
  15   0.0000       0.010677         0.2905
  16   0.0000       0.012431         0.3383

MULLIKEN ATOMIC CHARGES AND SPIN POPULATIONS
--------------------------------------------
   0 C :    0.598059    0.000000
   1 O :   -0.368177    0.000000
   2 N :   -0.403536    0.000000
   3 H :   -0.102094   -0.000000
   4 H :    0.155066   -0.000000
   5 H :    0.120682   -0.000000
Sum of atomic charges         :    0.0000000

LOEWDIN ATOMIC CHARGES AND SPIN POPULATIONS
-------------------------------------------
   0 C :    0.061752    0.000000
   1 O :    0.499046   -0.000000
   2 N :    0.936977    0.000000
   3 H :   -0.454565   -0.000000
   4 H :   -0.542119   -0.000000
   5 H :   -0.501092    0.000000

  Mayer bond orders larger than 0.1
B(  0-C ,  1-O ) :   1.6675 B(  0-C ,  2-N ) :   1.2510 B(  0-C ,  3-H ) :   0.9734
B(  1-O ,  3-H ) :   0.1096 B(  2-N ,  4-H ) :   0.9844 B(  2-N ,  5-H ) :   1.0552

FINAL SINGLE POINT ENERGY      -169.792401930814

DIPOLE MOMENT
-------------
                                X             Y             Z
Electronic contribution:      1.49987       0.12071      -0.00000
Nuclear contribution   :     -2.98152      -0.38703       0.00000
                        -----------------------------------------
Total Dipole Moment    :     -1.48165      -0.26632      -0.00000
                        -----------------------------------------
Magnitude (a.u.)       :      1.50540
Magnitude (Debye)      :      3.82641

Rotational constants in cm-1:     2.468819     0.383251     0.331751
Rotational constants in MHz : 74013.333721 11489.574538  9945.646668

                             ****ORCA TERMINATED NORMALLY****
TOTAL RUN TIME: 0 days 4 hours 7 minutes 4 seconds 762 msec
