                         Program Version 4.1.2  - RELEASE  -
|  1> !uks pbe nori aug-pc-4 grid7 nofinalgrid verytightscf
|  2>
|  3> %maxcore 1500
|  4>
|  5> %pal nprocs 1 end
|  6>
|  7> %scf
|  8> 	maxiter 200
|  9> end
| 10> %elprop
| 11> 	dipole true
| 12> 	 polar 1
| 13> 	 maxiter 200
| 14> end
| 15>
| 16> * xyz 0 1
| 17> C 0.0000 0.0000 0.0000
| 18> H 0.0000 0.0000 1.0670
| 19> P 0.0000 0.0000 -1.5420
| 20> *
| 21>
| 22>                          ****END OF INPUT****

CARTESIAN COORDINATES (ANGSTROEM)
---------------------------------
  C      0.000000    0.000000    0.000000
  H      0.000000    0.000000    1.067000
  P      0.000000    0.000000   -1.542000

 Total Charge           Charge          ....    0
 Multiplicity           Mult            ....    1
 Number of Electrons    NEL             ....   22
 Basis Dimension        Dim             ....  374

ORBITAL ENERGIES
----------------
                 SPIN UP ORBITALS
  NO   OCC          E(Eh)            E(eV)
   0   1.0000     -76.288343     -2075.9113
   1   1.0000      -9.922814      -270.0135
   2   1.0000      -6.309709      -171.6959
   3   1.0000      -4.525418      -123.1429
   4   1.0000      -4.525418      -123.1429
   5   1.0000      -4.521237      -123.0291
   6   1.0000      -0.650601       -17.7037
   7   1.0000      -0.494458       -13.4549
   8   1.0000      -0.325608        -8.8602
   9   1.0000      -0.259243        -7.0543
  10   1.0000      -0.259243        -7.0543
  11   0.0000      -0.088843        -2.4175
  12   0.0000      -0.088843        -2.4175
  13   0.0000      -0.009953        -0.2708
  14   0.0000       0.001081         0.0294
  15   0.0000       0.016065         0.4371

                 SPIN DOWN ORBITALS
  NO   OCC          E(Eh)            E(eV)
   0   1.0000     -76.288343     -2075.9113
   1   1.0000      -9.922814      -270.0135
   2   1.0000      -6.309709      -171.6959
   3   1.0000      -4.525418      -123.1429
   4   1.0000      -4.525418      -123.1429
   5   1.0000      -4.521237      -123.0291
   6   1.0000      -0.650601       -17.7037
   7   1.0000      -0.494458       -13.4549
   8   1.0000      -0.325608        -8.8602
   9   1.0000      -0.259243        -7.0543
  10   1.0000      -0.259243        -7.0543
  11   0.0000      -0.088843        -2.4175
  12   0.0000      -0.088843        -2.4175
  13   0.0000      -0.009953        -0.2708
  14   0.0000       0.001081         0.0294
  15   0.0000       0.016065         0.4371

MULLIKEN ATOMIC CHARGES AND SPIN POPULATIONS
--------------------------------------------
   0 C :    0.179783    0.000000
   1 H :   -0.147869    0.000000
   2 P :   -0.031915   -0.000000
Sum of atomic charges         :    0.0000000

LOEWDIN ATOMIC CHARGES AND SPIN POPULATIONS
-------------------------------------------
   0 C :   -0.206280    0.000000
   1 H :   -0.863344    0.000000
   2 P :    1.069624   -0.000000

  Mayer bond orders larger than 0.1
B(  0-C ,  1-H ) :   1.1470 B(  0-C ,  2-P ) :   2.5813 B(  1-H ,  2-P ) :   0.2949

FINAL SINGLE POINT ENERGY      -379.827253484425

DIPOLE MOMENT
-------------
                                X             Y             Z
Electronic contribution:      0.00000       0.00000      -2.28025
Nuclear contribution   :      0.00000       0.00000       2.42622
                        -----------------------------------------
Total Dipole Moment    :      0.00000       0.00000       0.14597
                        -----------------------------------------
Magnitude (a.u.)       :      0.14597
Magnitude (Debye)      :      0.37103

Rotational constants in cm-1:     0.000000     0.667581     0.667581
Rotational constants in MHz :     0.000000 20013.586783 20013.586783

                             ****ORCA TERMINATED NORMALLY****
TOTAL RUN TIME: 0 days 2 hours 23 minutes 24 seconds 634 msec
