                         Program Version 4.1.2  - RELEASE  -
|  1> !uks pbe nori aug-pc-4 grid7 nofinalgrid verytightscf
|  2>
|  3> %maxcore 1500
|  4>
|  5> %pal nprocs 1 end
|  6>
|  7> %scf
|  8> 	maxiter 200
|  9> end
| 10> %elprop
| 11> 	dipole true
| 12> 	 polar 1
| 13> 	 maxiter 200
| 14> end
| 15>
| 16> * xyz 0 1
| 17> H 0.0000 -0.9718 0.9211
| 18> N 0.0000 0.0648 0.5834
| 19> O 0.0000 0.0648 -0.6256
| 20> *
| 21>
| 22>                          ****END OF INPUT****

CARTESIAN COORDINATES (ANGSTROEM)
---------------------------------
  H      0.000000   -0.971800    0.921100
  N      0.000000    0.064800    0.583400
  O      0.000000    0.064800   -0.625600

 Total Charge           Charge          ....    0
 Multiplicity           Mult            ....    1
 Number of Electrons    NEL             ....   16
 Basis Dimension        Dim             ....  378

ORBITAL ENERGIES
----------------
                 SPIN UP ORBITALS
  NO   OCC          E(Eh)            E(eV)
   0   1.0000     -18.839358      -512.6450
   1   1.0000     -14.116318      -384.1245
   2   1.0000      -1.092408       -29.7259
   3   1.0000      -0.659780       -17.9535
   4   1.0000      -0.483455       -13.1555
   5   1.0000      -0.434457       -11.8222
   6   1.0000      -0.404048       -10.9947
   7   1.0000      -0.205709        -5.5976
   8   0.0000      -0.163438        -4.4474
   9   0.0000      -0.026133        -0.7111
  10   0.0000       0.014898         0.4054
  11   0.0000       0.021273         0.5789
  12   0.0000       0.023455         0.6383

                 SPIN DOWN ORBITALS
  NO   OCC          E(Eh)            E(eV)
   0   1.0000     -18.839358      -512.6450
   1   1.0000     -14.116318      -384.1245
   2   1.0000      -1.092408       -29.7259
   3   1.0000      -0.659780       -17.9535
   4   1.0000      -0.483455       -13.1555
   5   1.0000      -0.434457       -11.8222
   6   1.0000      -0.404048       -10.9947
   7   1.0000      -0.205709        -5.5976
   8   0.0000      -0.163438        -4.4474
   9   0.0000      -0.026133        -0.7111
  10   0.0000       0.014898         0.4054
  11   0.0000       0.021273         0.5789
  12   0.0000       0.023455         0.6383

MULLIKEN ATOMIC CHARGES AND SPIN POPULATIONS
--------------------------------------------
   0 H :    0.157106    0.000000
   1 N :    0.022490   -0.000000
   2 O :   -0.179596   -0.000000
Sum of atomic charges         :    0.0000000

LOEWDIN ATOMIC CHARGES AND SPIN POPULATIONS
-------------------------------------------
   0 H :   -0.619552    0.000000
   1 N :    0.330689   -0.000000
   2 O :    0.288863    0.000000

  Mayer bond orders larger than 0.1
B(  0-H ,  1-N ) :   0.9180 B(  1-N ,  2-O ) :   1.8805

FINAL SINGLE POINT ENERGY      -130.407481804489

DIPOLE MOMENT
-------------
                                X             Y             Z
Electronic contribution:      0.00000       0.43946      -0.58555
Nuclear contribution   :      0.00000      -0.94022       0.88620
                        -----------------------------------------
Total Dipole Moment    :      0.00000      -0.50076       0.30065
                        -----------------------------------------
Magnitude (a.u.)       :      0.58408
Magnitude (Debye)      :      1.48462

Rotational constants in cm-1:    17.606681     1.410914     1.306238
Rotational constants in MHz : 527835.027066 42298.140358 39160.044243

                             ****ORCA TERMINATED NORMALLY****
TOTAL RUN TIME: 0 days 1 hours 26 minutes 22 seconds 85 msec
