                         Program Version 4.1.2  - RELEASE  -
|  1> !uks pbe nori aug-pc-4 grid7 nofinalgrid verytightscf
|  2>
|  3> %maxcore 1500
|  4>
|  5> %pal nprocs 1 end
|  6>
|  7> %scf
|  8> 	maxiter 200
|  9> end
| 10> %elprop
| 11> 	dipole true
| 12> 	 polar 1
| 13> 	 maxiter 200
| 14> end
| 15>
| 16> * xyz 0 1
| 17> N 1.0375899124 0.1438382012 0.0000000000
| 18> S -0.5437813358 -0.0126986493 0.0000000000
| 19> H 1.4373719861 -0.8036890193 0.0000000000
| 20> *
| 21>
| 22>                          ****END OF INPUT****

CARTESIAN COORDINATES (ANGSTROEM)
---------------------------------
  N      1.037590    0.143838    0.000000
  S     -0.543781   -0.012699    0.000000
  H      1.437372   -0.803689    0.000000

 Total Charge           Charge          ....    0
 Multiplicity           Mult            ....    1
 Number of Electrons    NEL             ....   24
 Basis Dimension        Dim             ....  374

ORBITAL ENERGIES
----------------
                 SPIN UP ORBITALS
  NO   OCC          E(Eh)            E(eV)
   0   1.0000     -88.083724     -2396.8800
   1   1.0000     -14.055068      -382.4578
   2   1.0000      -7.719339      -210.0539
   3   1.0000      -5.742914      -156.2726
   4   1.0000      -5.738648      -156.1565
   5   1.0000      -5.727390      -155.8502
   6   1.0000      -0.853449       -23.2235
   7   1.0000      -0.592686       -16.1278
   8   1.0000      -0.423842       -11.5333
   9   1.0000      -0.344038        -9.3617
  10   1.0000      -0.330136        -8.9835
  11   1.0000      -0.195324        -5.3150
  12   0.0000      -0.179124        -4.8742
  13   0.0000      -0.034534        -0.9397
  14   0.0000      -0.007035        -0.1914
  15   0.0000       0.015014         0.4085
  16   0.0000       0.017021         0.4632

                 SPIN DOWN ORBITALS
  NO   OCC          E(Eh)            E(eV)
   0   1.0000     -88.083724     -2396.8800
   1   1.0000     -14.055068      -382.4578
   2   1.0000      -7.719339      -210.0539
   3   1.0000      -5.742914      -156.2726
   4   1.0000      -5.738648      -156.1565
   5   1.0000      -5.727390      -155.8502
   6   1.0000      -0.853449       -23.2235
   7   1.0000      -0.592686       -16.1278
   8   1.0000      -0.423842       -11.5333
   9   1.0000      -0.344038        -9.3617
  10   1.0000      -0.330136        -8.9835
  11   1.0000      -0.195324        -5.3150
  12   0.0000      -0.179124        -4.8742
  13   0.0000      -0.034534        -0.9397
  14   0.0000      -0.007035        -0.1914
  15   0.0000       0.015014         0.4085
  16   0.0000       0.017021         0.4632

MULLIKEN ATOMIC CHARGES AND SPIN POPULATIONS
--------------------------------------------
   0 N :   -0.156835    0.000000
   1 S :   -0.051509   -0.000000
   2 H :    0.208343   -0.000000
Sum of atomic charges         :    0.0000000

LOEWDIN ATOMIC CHARGES AND SPIN POPULATIONS
-------------------------------------------
   0 N :   -0.193369   -0.000000
   1 S :    1.323328   -0.000000
   2 H :   -1.129959    0.000000

  Mayer bond orders larger than 0.1
B(  0-N ,  1-S ) :   1.9593 B(  0-N ,  2-H ) :   0.9079

FINAL SINGLE POINT ENERGY      -453.297680216557

DIPOLE MOMENT
-------------
                                X             Y             Z
Electronic contribution:     -1.37177       0.24340       0.00000
Nuclear contribution   :      1.39816      -0.76834       0.00000
                        -----------------------------------------
Total Dipole Moment    :      0.02639      -0.52494       0.00000
                        -----------------------------------------
Magnitude (a.u.)       :      0.52560
Magnitude (Debye)      :      1.33598

Rotational constants in cm-1:    19.175351     0.632530     0.612331
Rotational constants in MHz : 574862.568549 18962.761521 18357.219275

                             ****ORCA TERMINATED NORMALLY****
TOTAL RUN TIME: 0 days 1 hours 57 minutes 8 seconds 369 msec
