                         Program Version 4.1.2  - RELEASE  -
|  1> !uks pbe nori aug-pc-4 grid7 nofinalgrid verytightscf
|  2>
|  3> %maxcore 1500
|  4>
|  5> %pal nprocs 1 end
|  6>
|  7> %scf
|  8> 	maxiter 200
|  9> end
| 10> %elprop
| 11> 	dipole true
| 12> 	 polar 1
| 13> 	 maxiter 200
| 14> end
| 15>
| 16> * xyz 0 2
| 17> O 0.0553 -0.6132 0.0000
| 18> O 0.0553 0.7198 0.0000
| 19> H -0.8853 -0.8528 0.0000
| 20> *
| 21>
| 22>                          ****END OF INPUT****

CARTESIAN COORDINATES (ANGSTROEM)
---------------------------------
  O      0.055300   -0.613200    0.000000
  O      0.055300    0.719800    0.000000
  H     -0.885300   -0.852800    0.000000

 Total Charge           Charge          ....    0
 Multiplicity           Mult            ....    2
 Number of Electrons    NEL             ....   17
 Basis Dimension        Dim             ....  378

ORBITAL ENERGIES
----------------
                 SPIN UP ORBITALS
  NO   OCC          E(Eh)            E(eV)
   0   1.0000     -18.883025      -513.8332
   1   1.0000     -18.832835      -512.4675
   2   1.0000      -1.111426       -30.2434
   3   1.0000      -0.799503       -21.7556
   4   1.0000      -0.516826       -14.0635
   5   1.0000      -0.438269       -11.9259
   6   1.0000      -0.437614       -11.9081
   7   1.0000      -0.253865        -6.9080
   8   1.0000      -0.247129        -6.7247
   9   0.0000      -0.039538        -1.0759
  10   0.0000       0.001027         0.0280
  11   0.0000       0.023040         0.6270
  12   0.0000       0.026853         0.7307
  13   0.0000       0.034791         0.9467

                 SPIN DOWN ORBITALS
  NO   OCC          E(Eh)            E(eV)
   0   1.0000     -18.875064      -513.6166
   1   1.0000     -18.815166      -511.9867
   2   1.0000      -1.090659       -29.6783
   3   1.0000      -0.768738       -20.9184
   4   1.0000      -0.503704       -13.7065
   5   1.0000      -0.424815       -11.5598
   6   1.0000      -0.387334       -10.5399
   7   1.0000      -0.231940        -6.3114
   8   0.0000      -0.177487        -4.8297
   9   0.0000      -0.036967        -1.0059
  10   0.0000       0.008325         0.2265
  11   0.0000       0.023629         0.6430
  12   0.0000       0.029669         0.8073

MULLIKEN ATOMIC CHARGES AND SPIN POPULATIONS
--------------------------------------------
   0 O :   -0.023689    0.277293
   1 O :   -0.178491    0.714587
   2 H :    0.202180    0.008120
Sum of atomic charges         :    0.0000000

LOEWDIN ATOMIC CHARGES AND SPIN POPULATIONS
-------------------------------------------
   0 O :    0.593404    0.313676
   1 O :    0.245484    0.633942
   2 H :   -0.838888    0.052381

  Mayer bond orders larger than 0.1
B(  0-O ,  1-O ) :   1.3416 B(  0-O ,  2-H ) :   0.9754

FINAL SINGLE POINT ENERGY      -150.841453191507

DIPOLE MOMENT
-------------
                                X             Y             Z
Electronic contribution:      0.21650       0.23203      -0.00000
Nuclear contribution   :     -0.85465      -0.82330       0.00000
                        -----------------------------------------
Total Dipole Moment    :     -0.63815      -0.59127      -0.00000
                        -----------------------------------------
Magnitude (a.u.)       :      0.86997
Magnitude (Debye)      :      2.21128

Rotational constants in cm-1:    20.665858     1.118966     1.061491
Rotational constants in MHz : 619546.847976 33545.749135 31822.689817

                             ****ORCA TERMINATED NORMALLY****
TOTAL RUN TIME: 0 days 1 hours 29 minutes 55 seconds 165 msec
