                         Program Version 4.1.2  - RELEASE  -
|  1> !uks pbe nori aug-pc-4 grid7 nofinalgrid verytightscf
|  2>
|  3> %maxcore 1500
|  4>
|  5> %pal nprocs 1 end
|  6>
|  7> %scf
|  8> 	maxiter 200
|  9> end
| 10> %elprop
| 11> 	dipole true
| 12> 	 polar 1
| 13> 	 maxiter 200
| 14> end
| 15>
| 16> * xyz 0 1
| 17> O 0.0529 0 0.7143
| 18> H -0.8995 0 0.8346
| 19> F 0.0529 0 -0.7277
| 20> *
| 21>
| 22>                          ****END OF INPUT****

CARTESIAN COORDINATES (ANGSTROEM)
---------------------------------
  O      0.052900    0.000000    0.714300
  H     -0.899500    0.000000    0.834600
  F      0.052900    0.000000   -0.727700

 Total Charge           Charge          ....    0
 Multiplicity           Mult            ....    1
 Number of Electrons    NEL             ....   18
 Basis Dimension        Dim             ....  378

ORBITAL ENERGIES
----------------
                 SPIN UP ORBITALS
  NO   OCC          E(Eh)            E(eV)
   0   1.0000     -24.303484      -661.3314
   1   1.0000     -18.861200      -513.2393
   2   1.0000      -1.152236       -31.3539
   3   1.0000      -0.902062       -24.5464
   4   1.0000      -0.526277       -14.3207
   5   1.0000      -0.453384       -12.3372
   6   1.0000      -0.411509       -11.1977
   7   1.0000      -0.335890        -9.1400
   8   1.0000      -0.270642        -7.3646
   9   0.0000      -0.127118        -3.4590
  10   0.0000      -0.029931        -0.8145
  11   0.0000       0.025164         0.6848
  12   0.0000       0.028764         0.7827
  13   0.0000       0.029898         0.8136

                 SPIN DOWN ORBITALS
  NO   OCC          E(Eh)            E(eV)
   0   1.0000     -24.303484      -661.3314
   1   1.0000     -18.861200      -513.2393
   2   1.0000      -1.152236       -31.3539
   3   1.0000      -0.902062       -24.5464
   4   1.0000      -0.526277       -14.3207
   5   1.0000      -0.453384       -12.3372
   6   1.0000      -0.411509       -11.1977
   7   1.0000      -0.335890        -9.1400
   8   1.0000      -0.270642        -7.3646
   9   0.0000      -0.127118        -3.4590
  10   0.0000      -0.029931        -0.8145
  11   0.0000       0.025164         0.6848
  12   0.0000       0.028764         0.7827
  13   0.0000       0.029898         0.8136

MULLIKEN ATOMIC CHARGES AND SPIN POPULATIONS
--------------------------------------------
   0 O :   -0.079710   -0.000000
   1 H :    0.186822    0.000000
   2 F :   -0.107111    0.000000
Sum of atomic charges         :    0.0000000

LOEWDIN ATOMIC CHARGES AND SPIN POPULATIONS
-------------------------------------------
   0 O :    0.755067   -0.000000
   1 H :   -0.825243    0.000000
   2 F :    0.070176    0.000000

  Mayer bond orders larger than 0.1
B(  0-O ,  1-H ) :   1.0063 B(  0-O ,  2-F ) :   0.9254

FINAL SINGLE POINT ENERGY      -175.465919851756

DIPOLE MOMENT
-------------
                                X             Y             Z
Electronic contribution:      0.25580       0.00000      -1.14224
Nuclear contribution   :     -0.89281       0.00000       1.46895
                        -----------------------------------------
Total Dipole Moment    :     -0.63701       0.00000       0.32670
                        -----------------------------------------
Magnitude (a.u.)       :      0.71590
Magnitude (Debye)      :      1.81968

Rotational constants in cm-1:    19.849065     0.892043     0.853678
Rotational constants in MHz : 595059.996219 26742.790363 25592.623700

                             ****ORCA TERMINATED NORMALLY****
TOTAL RUN TIME: 0 days 1 hours 19 minutes 37 seconds 802 msec
