                         Program Version 4.1.2  - RELEASE  -
|  1> !uks pbe nori aug-pc-4 grid7 nofinalgrid verytightscf
|  2>
|  3> %maxcore 1500
|  4>
|  5> %pal nprocs 1 end
|  6>
|  7> %scf
|  8> 	maxiter 200
|  9> end
| 10> %elprop
| 11> 	dipole true
| 12> 	 polar 1
| 13> 	 maxiter 200
| 14> end
| 15>
| 16> * xyz 0 1
| 17> Li 0.0000 0.0000 0.0000
| 18> Li 0.0000 0.0000 2.6730
| 19> *
| 20>
| 21>                          ****END OF INPUT****

CARTESIAN COORDINATES (ANGSTROEM)
---------------------------------
  Li     0.000000    0.000000    0.000000
  Li     0.000000    0.000000    2.673000

 Total Charge           Charge          ....    0
 Multiplicity           Mult            ....    1
 Number of Electrons    NEL             ....    6
 Basis Dimension        Dim             ....  166

ORBITAL ENERGIES
----------------
                 SPIN UP ORBITALS
  NO   OCC          E(Eh)            E(eV)
   0   1.0000      -1.870613       -50.9020
   1   1.0000      -1.870185       -50.8903
   2   1.0000      -0.118551        -3.2259
   3   0.0000      -0.065785        -1.7901
   4   0.0000      -0.047846        -1.3019
   5   0.0000      -0.047846        -1.3019
   6   0.0000      -0.033105        -0.9008
   7   0.0000       0.000397         0.0108

                 SPIN DOWN ORBITALS
  NO   OCC          E(Eh)            E(eV)
   0   1.0000      -1.870613       -50.9020
   1   1.0000      -1.870185       -50.8903
   2   1.0000      -0.118551        -3.2259
   3   0.0000      -0.065785        -1.7901
   4   0.0000      -0.047846        -1.3019
   5   0.0000      -0.047846        -1.3019
   6   0.0000      -0.033105        -0.9008
   7   0.0000       0.000397         0.0108

MULLIKEN ATOMIC CHARGES AND SPIN POPULATIONS
--------------------------------------------
   0 Li:   -0.000002    0.000000
   1 Li:    0.000002   -0.000000
Sum of atomic charges         :    0.0000000

LOEWDIN ATOMIC CHARGES AND SPIN POPULATIONS
-------------------------------------------
   0 Li:   -0.000000    0.000000
   1 Li:    0.000000   -0.000000

  Mayer bond orders larger than 0.1
B(  0-Li,  1-Li) :   0.9994

FINAL SINGLE POINT ENERGY       -14.955994003936

DIPOLE MOMENT
-------------
                                X             Y             Z
Electronic contribution:      0.00000      -0.00000       0.00000
Nuclear contribution   :      0.00000       0.00000       0.00000
                        -----------------------------------------
Total Dipole Moment    :      0.00000      -0.00000       0.00000
                        -----------------------------------------
Magnitude (a.u.)       :      0.00000
Magnitude (Debye)      :      0.00000

Rotational constants in cm-1:     0.000000     0.679840     0.679840
Rotational constants in MHz :     0.000000 20381.100837 20381.100837

                             ****ORCA TERMINATED NORMALLY****
TOTAL RUN TIME: 0 days 0 hours 3 minutes 52 seconds 727 msec
