                         Program Version 4.1.2  - RELEASE  -
|  1> !uks pbe nori aug-pc-4 grid7 nofinalgrid verytightscf
|  2>
|  3> %maxcore 1500
|  4>
|  5> %pal nprocs 4 end
|  6>
|  7> %scf
|  8> 	maxiter 200
|  9> end
| 10> %elprop
| 11> 	dipole true
| 12> 	 polar 1
| 13> 	 maxiter 200
| 14> end
| 15>
| 16> * xyz 0 1
| 17> Li 0.0000000000 0.0000000000 -1.4298000000
| 18> B 0.0000000000 0.0000000000 0.5063000000
| 19> H 0.0000000000 0.0000000000 1.6973000000
| 20> H 0.0000000000 1.1405000000 0.0202000000
| 21> H 0.9877000000 -0.5702000000 0.0202000000
| 22> H -0.9877000000 -0.5702000000 0.0202000000
| 23> *
| 24>
| 25>                          ****END OF INPUT****

CARTESIAN COORDINATES (ANGSTROEM)
---------------------------------
  Li     0.000000    0.000000   -1.429800
  B      0.000000    0.000000    0.506300
  H      0.000000    0.000000    1.697300
  H      0.000000    1.140500    0.020200
  H      0.987700   -0.570200    0.020200
  H     -0.987700   -0.570200    0.020200

 Total Charge           Charge          ....    0
 Multiplicity           Mult            ....    1
 Number of Electrons    NEL             ....   12
 Basis Dimension        Dim             ....  580

ORBITAL ENERGIES
----------------
                 SPIN UP ORBITALS
  NO   OCC          E(Eh)            E(eV)
   0   1.0000      -6.417575      -174.6311
   1   1.0000      -1.888453       -51.3874
   2   1.0000      -0.442967       -12.0538
   3   1.0000      -0.256700        -6.9852
   4   1.0000      -0.256690        -6.9849
   5   1.0000      -0.256406        -6.9772
   6   0.0000      -0.062153        -1.6913
   7   0.0000      -0.003007        -0.0818
   8   0.0000      -0.003007        -0.0818
   9   0.0000       0.003860         0.1050
  10   0.0000       0.007962         0.2166

                 SPIN DOWN ORBITALS
  NO   OCC          E(Eh)            E(eV)
   0   1.0000      -6.417575      -174.6311
   1   1.0000      -1.888453       -51.3874
   2   1.0000      -0.442967       -12.0538
   3   1.0000      -0.256700        -6.9852
   4   1.0000      -0.256690        -6.9849
   5   1.0000      -0.256406        -6.9772
   6   0.0000      -0.062153        -1.6913
   7   0.0000      -0.003007        -0.0818
   8   0.0000      -0.003007        -0.0818
   9   0.0000       0.003860         0.1050
  10   0.0000       0.007962         0.2166

MULLIKEN ATOMIC CHARGES AND SPIN POPULATIONS
--------------------------------------------
   0 Li:    0.637030   -0.000000
   1 B :   -0.784805   -0.000000
   2 H :   -0.008396    0.000000
   3 H :    0.051038   -0.000000
   4 H :    0.053146   -0.000000
   5 H :    0.051988    0.000000
Sum of atomic charges         :    0.0000000

LOEWDIN ATOMIC CHARGES AND SPIN POPULATIONS
-------------------------------------------
   0 Li:    0.352288   -0.000000
   1 B :    0.685291   -0.000000
   2 H :   -0.270520   -0.000000
   3 H :   -0.255678    0.000000
   4 H :   -0.255690    0.000000
   5 H :   -0.255690    0.000000

  Mayer bond orders larger than 0.1
B(  0-Li,  1-B ) :   0.4218 B(  0-Li,  3-H ) :   0.1399 B(  0-Li,  4-H ) :   0.1401
B(  0-Li,  5-H ) :   0.1397 B(  1-B ,  2-H ) :   0.9923 B(  1-B ,  3-H ) :   0.8233
B(  1-B ,  4-H ) :   0.8204 B(  1-B ,  5-H ) :   0.8220

FINAL SINGLE POINT ENERGY       -34.717187668984

DIPOLE MOMENT
-------------
                                X             Y             Z
Electronic contribution:      0.00000      -0.00012      -5.12907
Nuclear contribution   :      0.00000       0.00008       2.78910
                        -----------------------------------------
Total Dipole Moment    :      0.00000      -0.00003      -2.33997
                        -----------------------------------------
Magnitude (a.u.)       :      2.33997
Magnitude (Debye)      :      5.94774

Rotational constants in cm-1:     4.285861     0.783971     0.783967
Rotational constants in MHz : 128486.884382 23502.848984 23502.731923

                             ****ORCA TERMINATED NORMALLY****
TOTAL RUN TIME: 0 days 1 hours 25 minutes 8 seconds 506 msec
