                         Program Version 4.1.2  - RELEASE  -
|  1> !uks pbe nori aug-pc-4 grid7 nofinalgrid verytightscf
|  2>
|  3> %maxcore 1500
|  4>
|  5> %pal nprocs 1 end
|  6>
|  7> %scf
|  8> 	maxiter 200
|  9> end
| 10> %elprop
| 11> 	dipole true
| 12> 	 polar 1
| 13> 	 maxiter 200
| 14> end
| 15>
| 16> * xyz 0 1
| 17> Li 0.0000 0.0000 0.0000
| 18> Cl 0.0000 0.0000 2.0207
| 19> *
| 20>
| 21>                          ****END OF INPUT****

CARTESIAN COORDINATES (ANGSTROEM)
---------------------------------
  Li     0.000000    0.000000    0.000000
  Cl     0.000000    0.000000    2.020700

 Total Charge           Charge          ....    0
 Multiplicity           Mult            ....    1
 Number of Electrons    NEL             ....   20
 Basis Dimension        Dim             ....  224

ORBITAL ENERGIES
----------------
                 SPIN UP ORBITALS
  NO   OCC          E(Eh)            E(eV)
   0   1.0000    -100.553239     -2736.1927
   1   1.0000      -9.078581      -247.0408
   2   1.0000      -6.894789      -187.6168
   3   1.0000      -6.894203      -187.6008
   4   1.0000      -6.894203      -187.6008
   5   1.0000      -1.897204       -51.6256
   6   1.0000      -0.643485       -17.5101
   7   1.0000      -0.237398        -6.4599
   8   1.0000      -0.216000        -5.8776
   9   1.0000      -0.216000        -5.8776
  10   0.0000      -0.066136        -1.7997
  11   0.0000      -0.007550        -0.2054
  12   0.0000      -0.007550        -0.2054
  13   0.0000       0.003748         0.1020
  14   0.0000       0.008779         0.2389

                 SPIN DOWN ORBITALS
  NO   OCC          E(Eh)            E(eV)
   0   1.0000    -100.553239     -2736.1927
   1   1.0000      -9.078581      -247.0408
   2   1.0000      -6.894789      -187.6168
   3   1.0000      -6.894203      -187.6008
   4   1.0000      -6.894203      -187.6008
   5   1.0000      -1.897204       -51.6256
   6   1.0000      -0.643485       -17.5101
   7   1.0000      -0.237398        -6.4599
   8   1.0000      -0.216000        -5.8776
   9   1.0000      -0.216000        -5.8776
  10   0.0000      -0.066136        -1.7997
  11   0.0000      -0.007550        -0.2054
  12   0.0000      -0.007550        -0.2054
  13   0.0000       0.003748         0.1020
  14   0.0000       0.008779         0.2389

MULLIKEN ATOMIC CHARGES AND SPIN POPULATIONS
--------------------------------------------
   0 Li:    0.608760    0.000000
   1 Cl:   -0.608760   -0.000000
Sum of atomic charges         :   -0.0000000

LOEWDIN ATOMIC CHARGES AND SPIN POPULATIONS
-------------------------------------------
   0 Li:   -0.241280    0.000000
   1 Cl:    0.241280   -0.000000

  Mayer bond orders larger than 0.1
B(  0-Li,  1-Cl) :   0.7048

FINAL SINGLE POINT ENERGY      -467.612306232004

DIPOLE MOMENT
-------------
                                X             Y             Z
Electronic contribution:     -0.00000       0.00000      -3.74099
Nuclear contribution   :      0.00000       0.00000       1.04827
                        -----------------------------------------
Total Dipole Moment    :     -0.00000       0.00000      -2.69272
                        -----------------------------------------
Magnitude (a.u.)       :      2.69272
Magnitude (Debye)      :      6.84434

Rotational constants in cm-1:     0.000000     0.711250     0.711250
Rotational constants in MHz :     0.000000 21322.753260 21322.753260

                             ****ORCA TERMINATED NORMALLY****
TOTAL RUN TIME: 0 days 0 hours 18 minutes 16 seconds 231 msec
