                         Program Version 4.1.2  - RELEASE  -
|  1> !uks pbe nori aug-pc-4 grid7 nofinalgrid verytightscf
|  2>
|  3> %maxcore 1500
|  4>
|  5> %pal nprocs 1 end
|  6>
|  7> %scf
|  8> 	maxiter 200
|  9> end
| 10> %elprop
| 11> 	dipole true
| 12> 	 polar 1
| 13> 	 maxiter 200
| 14> end
| 15>
| 16> * xyz 0 1
| 17> Li 0.0000 0.0000 0.0000
| 18> H 0.0000 0.0000 1.5949
| 19> *
| 20>
| 21>                          ****END OF INPUT****

CARTESIAN COORDINATES (ANGSTROEM)
---------------------------------
  Li     0.000000    0.000000    0.000000
  H      0.000000    0.000000    1.594900

 Total Charge           Charge          ....    0
 Multiplicity           Mult            ....    1
 Number of Electrons    NEL             ....    4
 Basis Dimension        Dim             ....  171

ORBITAL ENERGIES
----------------
                 SPIN UP ORBITALS
  NO   OCC          E(Eh)            E(eV)
   0   1.0000      -1.868433       -50.8426
   1   1.0000      -0.160295        -4.3618
   2   0.0000      -0.058846        -1.6013
   3   0.0000      -0.016375        -0.4456
   4   0.0000      -0.016375        -0.4456
   5   0.0000       0.003642         0.0991
   6   0.0000       0.011479         0.3123

                 SPIN DOWN ORBITALS
  NO   OCC          E(Eh)            E(eV)
   0   1.0000      -1.868433       -50.8426
   1   1.0000      -0.160295        -4.3618
   2   0.0000      -0.058846        -1.6013
   3   0.0000      -0.016375        -0.4456
   4   0.0000      -0.016375        -0.4456
   5   0.0000       0.003642         0.0991
   6   0.0000       0.011479         0.3123

MULLIKEN ATOMIC CHARGES AND SPIN POPULATIONS
--------------------------------------------
   0 Li:    0.562764    0.000000
   1 H :   -0.562764   -0.000000
Sum of atomic charges         :   -0.0000000

LOEWDIN ATOMIC CHARGES AND SPIN POPULATIONS
-------------------------------------------
   0 Li:    0.265639    0.000000
   1 H :   -0.265639   -0.000000

  Mayer bond orders larger than 0.1
B(  0-Li,  1-H ) :   0.7325

FINAL SINGLE POINT ENERGY        -8.047324474857

DIPOLE MOMENT
-------------
                                X             Y             Z
Electronic contribution:      0.00000       0.00000      -3.69445
Nuclear contribution   :      0.00000       0.00000       1.48516
                        -----------------------------------------
Total Dipole Moment    :      0.00000       0.00000      -2.20929
                        -----------------------------------------
Magnitude (a.u.)       :      2.20929
Magnitude (Debye)      :      5.61557

Rotational constants in cm-1:     0.000000     7.529392     7.529392
Rotational constants in MHz :     0.000000 225725.492015 225725.492015

                             ****ORCA TERMINATED NORMALLY****
TOTAL RUN TIME: 0 days 0 hours 3 minutes 21 seconds 548 msec
