                         Program Version 4.1.2  - RELEASE  -
|  1> !uks pbe nori aug-pc-4 grid7 nofinalgrid verytightscf
|  2>
|  3> %maxcore 1500
|  4>
|  5> %pal nprocs 1 end
|  6>
|  7> %scf
|  8> 	maxiter 200
|  9> end
| 10> %elprop
| 11> 	dipole true
| 12> 	 polar 1
| 13> 	 maxiter 200
| 14> end
| 15>
| 16> * xyz 0 1
| 17> N 0.0000000000 0.0000000000 0.0000000000
| 18> H 0.0000000000 0.0000000000 1.0337770000
| 19> N 1.1649590602 0.0000000000 -0.4597566182
| 20> H 1.8709666930 0.0000000000 0.2953911212
| 21> *
| 22>
| 23>                          ****END OF INPUT****

CARTESIAN COORDINATES (ANGSTROEM)
---------------------------------
  N      0.000000    0.000000    0.000000
  H      0.000000    0.000000    1.033777
  N      1.164959    0.000000   -0.459757
  H      1.870967    0.000000    0.295391

 Total Charge           Charge          ....    0
 Multiplicity           Mult            ....    1
 Number of Electrons    NEL             ....   16
 Basis Dimension        Dim             ....  466

ORBITAL ENERGIES
----------------
                 SPIN UP ORBITALS
  NO   OCC          E(Eh)            E(eV)
   0   1.0000     -14.049921      -382.3178
   1   1.0000     -14.049658      -382.3106
   2   1.0000      -0.954470       -25.9724
   3   1.0000      -0.628061       -17.0904
   4   1.0000      -0.518150       -14.0996
   5   1.0000      -0.367983       -10.0133
   6   1.0000      -0.337024        -9.1709
   7   1.0000      -0.215482        -5.8635
   8   0.0000      -0.115509        -3.1432
   9   0.0000      -0.037830        -1.0294
  10   0.0000       0.003266         0.0889
  11   0.0000       0.020097         0.5469
  12   0.0000       0.022374         0.6088

                 SPIN DOWN ORBITALS
  NO   OCC          E(Eh)            E(eV)
   0   1.0000     -14.049921      -382.3178
   1   1.0000     -14.049658      -382.3106
   2   1.0000      -0.954470       -25.9724
   3   1.0000      -0.628061       -17.0904
   4   1.0000      -0.518150       -14.0996
   5   1.0000      -0.367983       -10.0133
   6   1.0000      -0.337024        -9.1709
   7   1.0000      -0.215482        -5.8635
   8   0.0000      -0.115509        -3.1432
   9   0.0000      -0.037830        -1.0294
  10   0.0000       0.003266         0.0889
  11   0.0000       0.020097         0.5469
  12   0.0000       0.022374         0.6088

MULLIKEN ATOMIC CHARGES AND SPIN POPULATIONS
--------------------------------------------
   0 N :   -0.102049    0.000000
   1 H :    0.101905    0.000000
   2 N :   -0.101851   -0.000000
   3 H :    0.101996   -0.000000
Sum of atomic charges         :    0.0000000

LOEWDIN ATOMIC CHARGES AND SPIN POPULATIONS
-------------------------------------------
   0 N :    0.637893    0.000000
   1 H :   -0.637891    0.000000
   2 N :    0.637890   -0.000000
   3 H :   -0.637892   -0.000000

  Mayer bond orders larger than 0.1
B(  0-N ,  1-H ) :   0.9984 B(  0-N ,  2-N ) :   1.6087 B(  2-N ,  3-H ) :   0.9983

FINAL SINGLE POINT ENERGY      -110.565478186736

DIPOLE MOMENT
-------------
                                X             Y             Z
Electronic contribution:     -0.21829      -0.00000      -0.55311
Nuclear contribution   :      0.61763       0.00000       1.56499
                        -----------------------------------------
Total Dipole Moment    :      0.39934      -0.00000       1.01189
                        -----------------------------------------
Magnitude (a.u.)       :      1.08784
Magnitude (Debye)      :      2.76506

Rotational constants in cm-1:     9.693880     1.294345     1.141879
Rotational constants in MHz : 290615.212533 38803.474450 34232.666269

                             ****ORCA TERMINATED NORMALLY****
TOTAL RUN TIME: 0 days 2 hours 36 minutes 57 seconds 234 msec
