                         Program Version 4.1.2  - RELEASE  -
|  1> !uks pbe nori aug-pc-4 grid7 nofinalgrid verytightscf
|  2>
|  3> %maxcore 1500
|  4>
|  5> %pal nprocs 1 end
|  6>
|  7> %scf
|  8> 	maxiter 200
|  9> end
| 10> %elprop
| 11> 	dipole true
| 12> 	 polar 1
| 13> 	 maxiter 200
| 14> end
| 15>
| 16> * xyz 0 1
| 17> Na 0.0000 0.0000 0.0000
| 18> Na 0.0000 0.0000 3.0789
| 19> *
| 20>
| 21>                          ****END OF INPUT****

CARTESIAN COORDINATES (ANGSTROEM)
---------------------------------
  Na     0.000000    0.000000    0.000000
  Na     0.000000    0.000000    3.078900

 Total Charge           Charge          ....    0
 Multiplicity           Mult            ....    1
 Number of Electrons    NEL             ....   22
 Basis Dimension        Dim             ....  170

ORBITAL ENERGIES
----------------
                 SPIN UP ORBITALS
  NO   OCC          E(Eh)            E(eV)
   0   1.0000     -37.890766     -1031.0602
   1   1.0000     -37.890766     -1031.0602
   2   1.0000      -2.056931       -55.9719
   3   1.0000      -2.056786       -55.9680
   4   1.0000      -1.033842       -28.1323
   5   1.0000      -1.032893       -28.1065
   6   1.0000      -1.032893       -28.1065
   7   1.0000      -1.032658       -28.1001
   8   1.0000      -1.032658       -28.1001
   9   1.0000      -1.031767       -28.0758
  10   1.0000      -0.114868        -3.1257
  11   0.0000      -0.065306        -1.7771
  12   0.0000      -0.035048        -0.9537
  13   0.0000      -0.035048        -0.9537
  14   0.0000      -0.018721        -0.5094
  15   0.0000       0.000831         0.0226

                 SPIN DOWN ORBITALS
  NO   OCC          E(Eh)            E(eV)
   0   1.0000     -37.890766     -1031.0602
   1   1.0000     -37.890766     -1031.0602
   2   1.0000      -2.056931       -55.9719
   3   1.0000      -2.056786       -55.9680
   4   1.0000      -1.033842       -28.1323
   5   1.0000      -1.032893       -28.1065
   6   1.0000      -1.032893       -28.1065
   7   1.0000      -1.032658       -28.1001
   8   1.0000      -1.032658       -28.1001
   9   1.0000      -1.031767       -28.0758
  10   1.0000      -0.114868        -3.1257
  11   0.0000      -0.065306        -1.7771
  12   0.0000      -0.035048        -0.9537
  13   0.0000      -0.035048        -0.9537
  14   0.0000      -0.018721        -0.5094
  15   0.0000       0.000831         0.0226

MULLIKEN ATOMIC CHARGES AND SPIN POPULATIONS
--------------------------------------------
   0 Na:    0.000025   -0.000000
   1 Na:   -0.000025    0.000000
Sum of atomic charges         :    0.0000000

LOEWDIN ATOMIC CHARGES AND SPIN POPULATIONS
-------------------------------------------
   0 Na:    0.000000   -0.000000
   1 Na:   -0.000000    0.000000

  Mayer bond orders larger than 0.1
B(  0-Na,  1-Na) :   1.0030

FINAL SINGLE POINT ENERGY      -324.372787056314

DIPOLE MOMENT
-------------
                                X             Y             Z
Electronic contribution:      0.00000      -0.00000      -0.00000
Nuclear contribution   :      0.00000       0.00000       0.00000
                        -----------------------------------------
Total Dipole Moment    :      0.00000      -0.00000      -0.00000
                        -----------------------------------------
Magnitude (a.u.)       :      0.00000
Magnitude (Debye)      :      0.00000

Rotational constants in cm-1:     0.000000     0.154702     0.154702
Rotational constants in MHz :     0.000000  4637.858146  4637.858146

                             ****ORCA TERMINATED NORMALLY****
TOTAL RUN TIME: 0 days 0 hours 6 minutes 11 seconds 216 msec
