                         Program Version 4.1.2  - RELEASE  -
|  1> !uks pbe nori aug-pc-4 grid7 nofinalgrid verytightscf
|  2>
|  3> %maxcore 1500
|  4>
|  5> %pal nprocs 1 end
|  6>
|  7> %scf
|  8> 	maxiter 200
|  9> end
| 10> %elprop
| 11> 	dipole true
| 12> 	 polar 1
| 13> 	 maxiter 200
| 14> end
| 15>
| 16> * xyz 0 2
| 17> Na 0.0 0.0 0.0
| 18> *
| 19>
| 20>                          ****END OF INPUT****

CARTESIAN COORDINATES (ANGSTROEM)
---------------------------------
  Na     0.000000    0.000000    0.000000

 Total Charge           Charge          ....    0
 Multiplicity           Mult            ....    2
 Number of Electrons    NEL             ....   11
 Basis Dimension        Dim             ....   85

ORBITAL ENERGIES
----------------
                 SPIN UP ORBITALS
  NO   OCC          E(Eh)            E(eV)
   0   1.0000     -37.907165     -1031.5064
   1   1.0000      -2.073738       -56.4293
   2   1.0000      -1.049848       -28.5678
   3   1.0000      -1.049848       -28.5678
   4   1.0000      -1.049848       -28.5678
   5   1.0000      -0.111487        -3.0337
   6   0.0000      -0.034528        -0.9396
   7   0.0000      -0.034528        -0.9396
   8   0.0000      -0.034528        -0.9396
   9   0.0000      -0.004800        -0.1306
  10   0.0000       0.010797         0.2938

                 SPIN DOWN ORBITALS
  NO   OCC          E(Eh)            E(eV)
   0   1.0000     -37.906210     -1031.4804
   1   1.0000      -2.071156       -56.3590
   2   1.0000      -1.046661       -28.4811
   3   1.0000      -1.046661       -28.4811
   4   1.0000      -1.046661       -28.4811
   5   0.0000      -0.051449        -1.4000
   6   0.0000       0.007946         0.2162
   7   0.0000       0.013286         0.3615
   8   0.0000       0.013286         0.3615
   9   0.0000       0.013286         0.3615

MULLIKEN ATOMIC CHARGES AND SPIN POPULATIONS
--------------------------------------------
   0 Na:    0.000000    1.000000
Sum of atomic charges         :    0.0000000

LOEWDIN ATOMIC CHARGES AND SPIN POPULATIONS
-------------------------------------------
   0 Na:    0.000000    1.000000

FINAL SINGLE POINT ENERGY      -162.172323132785

DIPOLE MOMENT
-------------
                                X             Y             Z
Electronic contribution:     -0.00000      -0.00000      -0.00000
Nuclear contribution   :      0.00000       0.00000       0.00000
                        -----------------------------------------
Total Dipole Moment    :     -0.00000      -0.00000      -0.00000
                        -----------------------------------------
Magnitude (a.u.)       :      0.00000
Magnitude (Debye)      :      0.00000

Rotational constants in cm-1:     0.000000     0.000000     0.000000
Rotational constants in MHz :     0.000000     0.000000     0.000000

                             ****ORCA TERMINATED NORMALLY****
TOTAL RUN TIME: 0 days 0 hours 0 minutes 29 seconds 911 msec
