                         Program Version 4.1.2  - RELEASE  -
|  1> !uks pbe nori aug-pc-4 grid7 nofinalgrid verytightscf
|  2>
|  3> %maxcore 1500
|  4>
|  5> %pal nprocs 1 end
|  6>
|  7> %scf
|  8> 	maxiter 200
|  9> end
| 10> %elprop
| 11> 	dipole true
| 12> 	 polar 1
| 13> 	 maxiter 200
| 14> end
| 15>
| 16> * xyz 0 1
| 17> Na 0.0000 0.0000 0.0000
| 18> Cl 0.0000 0.0000 2.3608
| 19> *
| 20>
| 21>                          ****END OF INPUT****

CARTESIAN COORDINATES (ANGSTROEM)
---------------------------------
  Na     0.000000    0.000000    0.000000
  Cl     0.000000    0.000000    2.360800

 Total Charge           Charge          ....    0
 Multiplicity           Mult            ....    1
 Number of Electrons    NEL             ....   28
 Basis Dimension        Dim             ....  226

ORBITAL ENERGIES
----------------
                 SPIN UP ORBITALS
  NO   OCC          E(Eh)            E(eV)
   0   1.0000    -100.534553     -2735.6843
   1   1.0000     -37.929773     -1032.1216
   2   1.0000      -9.059275      -246.5154
   3   1.0000      -6.876134      -187.1091
   4   1.0000      -6.874672      -187.0693
   5   1.0000      -6.874672      -187.0693
   6   1.0000      -2.098610       -57.1061
   7   1.0000      -1.074857       -29.2483
   8   1.0000      -1.074857       -29.2483
   9   1.0000      -1.072821       -29.1929
  10   1.0000      -0.620306       -16.8794
  11   1.0000      -0.211874        -5.7654
  12   1.0000      -0.194494        -5.2925
  13   1.0000      -0.194494        -5.2925
  14   0.0000      -0.082373        -2.2415
  15   0.0000      -0.010321        -0.2808
  16   0.0000      -0.010321        -0.2808
  17   0.0000      -0.000722        -0.0197
  18   0.0000       0.005287         0.1439

                 SPIN DOWN ORBITALS
  NO   OCC          E(Eh)            E(eV)
   0   1.0000    -100.534553     -2735.6843
   1   1.0000     -37.929773     -1032.1216
   2   1.0000      -9.059275      -246.5154
   3   1.0000      -6.876134      -187.1091
   4   1.0000      -6.874672      -187.0693
   5   1.0000      -6.874672      -187.0693
   6   1.0000      -2.098610       -57.1061
   7   1.0000      -1.074857       -29.2483
   8   1.0000      -1.074857       -29.2483
   9   1.0000      -1.072821       -29.1929
  10   1.0000      -0.620306       -16.8794
  11   1.0000      -0.211874        -5.7654
  12   1.0000      -0.194494        -5.2925
  13   1.0000      -0.194494        -5.2925
  14   0.0000      -0.082373        -2.2415
  15   0.0000      -0.010321        -0.2808
  16   0.0000      -0.010321        -0.2808
  17   0.0000      -0.000722        -0.0197
  18   0.0000       0.005287         0.1439

MULLIKEN ATOMIC CHARGES AND SPIN POPULATIONS
--------------------------------------------
   0 Na:    0.670504   -0.000000
   1 Cl:   -0.670504    0.000000
Sum of atomic charges         :   -0.0000000

LOEWDIN ATOMIC CHARGES AND SPIN POPULATIONS
-------------------------------------------
   0 Na:    0.654961   -0.000000
   1 Cl:   -0.654961    0.000000

  Mayer bond orders larger than 0.1
B(  0-Na,  1-Cl) :   0.6106

FINAL SINGLE POINT ENERGY      -622.297182641010

DIPOLE MOMENT
-------------
                                X             Y             Z
Electronic contribution:      0.00000      -0.00000      -3.40495
Nuclear contribution   :      0.00000       0.00000       0.06466
                        -----------------------------------------
Total Dipole Moment    :      0.00000      -0.00000      -3.34030
                        -----------------------------------------
Magnitude (a.u.)       :      3.34030
Magnitude (Debye)      :      8.49036

Rotational constants in cm-1:     0.000000     0.216880     0.216880
Rotational constants in MHz :     0.000000  6501.891981  6501.891981

                             ****ORCA TERMINATED NORMALLY****
TOTAL RUN TIME: 0 days 0 hours 23 minutes 39 seconds 813 msec
