                         Program Version 4.1.2  - RELEASE  -
|  1> !uks pbe nori aug-pc-4 grid7 nofinalgrid verytightscf
|  2>
|  3> %maxcore 1500
|  4>
|  5> %pal nprocs 1 end
|  6>
|  7> %scf
|  8> 	maxiter 200
|  9> end
| 10> %elprop
| 11> 	dipole true
| 12> 	 polar 1
| 13> 	 maxiter 200
| 14> end
| 15>
| 16> * xyz 0 1
| 17> C 1.0848000000 0.6433000000 0.0000000000
| 18> N 0.0000000000 1.1328000000 0.0000000000
| 19> Na -0.5917000000 -1.0717000000 0.0000000000
| 20> *
| 21>
| 22>                          ****END OF INPUT****

CARTESIAN COORDINATES (ANGSTROEM)
---------------------------------
  C      1.084800    0.643300    0.000000
  N      0.000000    1.132800    0.000000
  Na    -0.591700   -1.071700    0.000000

 Total Charge           Charge          ....    0
 Multiplicity           Mult            ....    1
 Number of Electrons    NEL             ....   24
 Basis Dimension        Dim             ....  375

ORBITAL ENERGIES
----------------
                 SPIN UP ORBITALS
  NO   OCC          E(Eh)            E(eV)
   0   1.0000     -37.942242     -1032.4609
   1   1.0000     -13.919593      -378.7714
   2   1.0000      -9.838850      -267.7287
   3   1.0000      -2.109967       -57.4151
   4   1.0000      -1.086308       -29.5600
   5   1.0000      -1.085821       -29.5467
   6   1.0000      -1.084354       -29.5068
   7   1.0000      -0.751765       -20.4566
   8   1.0000      -0.317895        -8.6504
   9   1.0000      -0.260077        -7.0771
  10   1.0000      -0.245335        -6.6759
  11   1.0000      -0.198603        -5.4043
  12   0.0000      -0.081679        -2.2226
  13   0.0000      -0.014644        -0.3985
  14   0.0000      -0.011474        -0.3122
  15   0.0000      -0.000669        -0.0182
  16   0.0000       0.008801         0.2395

                 SPIN DOWN ORBITALS
  NO   OCC          E(Eh)            E(eV)
   0   1.0000     -37.942242     -1032.4609
   1   1.0000     -13.919593      -378.7714
   2   1.0000      -9.838850      -267.7287
   3   1.0000      -2.109967       -57.4151
   4   1.0000      -1.086308       -29.5600
   5   1.0000      -1.085821       -29.5467
   6   1.0000      -1.084354       -29.5068
   7   1.0000      -0.751765       -20.4566
   8   1.0000      -0.317895        -8.6504
   9   1.0000      -0.260077        -7.0771
  10   1.0000      -0.245335        -6.6759
  11   1.0000      -0.198603        -5.4043
  12   0.0000      -0.081679        -2.2226
  13   0.0000      -0.014644        -0.3985
  14   0.0000      -0.011474        -0.3122
  15   0.0000      -0.000669        -0.0182
  16   0.0000       0.008801         0.2395

MULLIKEN ATOMIC CHARGES AND SPIN POPULATIONS
--------------------------------------------
   0 C :   -0.255435    0.000000
   1 N :   -0.431968   -0.000000
   2 Na:    0.687403    0.000000
Sum of atomic charges         :    0.0000000

LOEWDIN ATOMIC CHARGES AND SPIN POPULATIONS
-------------------------------------------
   0 C :   -0.506207    0.000000
   1 N :   -0.535913   -0.000000
   2 Na:    1.042120    0.000000

  Mayer bond orders larger than 0.1
B(  0-C ,  1-N ) :   2.4664 B(  0-C ,  2-Na) :   0.1809 B(  1-N ,  2-Na) :   0.3236

FINAL SINGLE POINT ENERGY      -254.972243355656

DIPOLE MOMENT
-------------
                                X             Y             Z
Electronic contribution:     -2.30502      -3.83263       0.00000
Nuclear contribution   :      0.53106       0.96800       0.00000
                        -----------------------------------------
Total Dipole Moment    :     -1.77396      -2.86463       0.00000
                        -----------------------------------------
Magnitude (a.u.)       :      3.36942
Magnitude (Debye)      :      8.56439

Rotational constants in cm-1:     1.854688     0.270089     0.235757
Rotational constants in MHz : 55602.151725  8097.075355  7067.822217

                             ****ORCA TERMINATED NORMALLY****
TOTAL RUN TIME: 0 days 1 hours 50 minutes 59 seconds 998 msec
