                         Program Version 4.1.2  - RELEASE  -
|  1> !uks pbe nori aug-pc-4 grid7 nofinalgrid verytightscf
|  2>
|  3> %maxcore 1500
|  4>
|  5> %pal nprocs 1 end
|  6>
|  7> %scf
|  8> 	maxiter 200
|  9> end
| 10> %elprop
| 11> 	dipole true
| 12> 	 polar 1
| 13> 	 maxiter 200
| 14> end
| 15>
| 16> * xyz 0 1
| 17> Li 0.0000 0.0000 0.0000
| 18> Na 0.0000 0.0000 2.8890
| 19> *
| 20>
| 21>                          ****END OF INPUT****

CARTESIAN COORDINATES (ANGSTROEM)
---------------------------------
  Li     0.000000    0.000000    0.000000
  Na     0.000000    0.000000    2.889000

 Total Charge           Charge          ....    0
 Multiplicity           Mult            ....    1
 Number of Electrons    NEL             ....   14
 Basis Dimension        Dim             ....  168

ORBITAL ENERGIES
----------------
                 SPIN UP ORBITALS
  NO   OCC          E(Eh)            E(eV)
   0   1.0000     -37.888085     -1030.9872
   1   1.0000      -2.054304       -55.9005
   2   1.0000      -1.875323       -51.0301
   3   1.0000      -1.030271       -28.0351
   4   1.0000      -1.030271       -28.0351
   5   1.0000      -1.030194       -28.0330
   6   1.0000      -0.116880        -3.1805
   7   0.0000      -0.066415        -1.8072
   8   0.0000      -0.042119        -1.1461
   9   0.0000      -0.042119        -1.1461
  10   0.0000      -0.025204        -0.6858
  11   0.0000      -0.000066        -0.0018

                 SPIN DOWN ORBITALS
  NO   OCC          E(Eh)            E(eV)
   0   1.0000     -37.888085     -1030.9872
   1   1.0000      -2.054304       -55.9005
   2   1.0000      -1.875323       -51.0301
   3   1.0000      -1.030271       -28.0351
   4   1.0000      -1.030271       -28.0351
   5   1.0000      -1.030194       -28.0330
   6   1.0000      -0.116880        -3.1805
   7   0.0000      -0.066415        -1.8072
   8   0.0000      -0.042119        -1.1461
   9   0.0000      -0.042119        -1.1461
  10   0.0000      -0.025204        -0.6858
  11   0.0000      -0.000066        -0.0018

MULLIKEN ATOMIC CHARGES AND SPIN POPULATIONS
--------------------------------------------
   0 Li:   -0.268951    0.000000
   1 Na:    0.268951   -0.000000
Sum of atomic charges         :   -0.0000000

LOEWDIN ATOMIC CHARGES AND SPIN POPULATIONS
-------------------------------------------
   0 Li:   -0.100174   -0.000000
   1 Na:    0.100174    0.000000

  Mayer bond orders larger than 0.1
B(  0-Li,  1-Na) :   0.9301

FINAL SINGLE POINT ENERGY      -169.663927740992

DIPOLE MOMENT
-------------
                                X             Y             Z
Electronic contribution:      0.00000       0.00000      -1.26171
Nuclear contribution   :      0.00000       0.00000       1.34630
                        -----------------------------------------
Total Dipole Moment    :      0.00000       0.00000       0.08458
                        -----------------------------------------
Magnitude (a.u.)       :      0.08458
Magnitude (Debye)      :      0.21500

Rotational constants in cm-1:     0.000000     0.378845     0.378845
Rotational constants in MHz :     0.000000 11357.499635 11357.499635

                             ****ORCA TERMINATED NORMALLY****
TOTAL RUN TIME: 0 days 0 hours 5 minutes 32 seconds 86 msec
