                         Program Version 4.1.2  - RELEASE  -
|  1> !uks pbe nori aug-pc-4 grid7 nofinalgrid verytightscf
|  2>
|  3> %maxcore 1500
|  4>
|  5> %pal nprocs 1 end
|  6>
|  7> %scf
|  8> 	maxiter 200
|  9> end
| 10> %elprop
| 11> 	dipole true
| 12> 	 polar 1
| 13> 	 maxiter 200
| 14> end
| 15>
| 16> * xyz 0 2
| 17> N 0.0000002327 -0.0000000061 -1.2737003115
| 18> C -0.0000004964 0.0000000123 -0.0271008600
| 19> O 0.0000002638 -0.0000000061 1.1312011715
| 20> *
| 21>
| 22>                          ****END OF INPUT****

CARTESIAN COORDINATES (ANGSTROEM)
---------------------------------
  N      0.000000   -0.000000   -1.273700
  C     -0.000000    0.000000   -0.027101
  O      0.000000   -0.000000    1.131201

 Total Charge           Charge          ....    0
 Multiplicity           Mult            ....    2
 Number of Electrons    NEL             ....   21
 Basis Dimension        Dim             ....  435

ORBITAL ENERGIES
----------------
                 SPIN UP ORBITALS
  NO   OCC          E(Eh)            E(eV)
   0   1.0000     -18.864532      -513.3300
   1   1.0000     -14.063397      -382.6845
   2   1.0000     -10.036645      -273.1110
   3   1.0000      -1.082219       -29.4487
   4   1.0000      -0.875874       -23.8337
   5   1.0000      -0.512360       -13.9420
   6   1.0000      -0.474735       -12.9182
   7   1.0000      -0.453129       -12.3303
   8   1.0000      -0.388580       -10.5738
   9   1.0000      -0.328399        -8.9362
  10   1.0000      -0.290444        -7.9034
  11   0.0000      -0.029984        -0.8159
  12   0.0000      -0.029313        -0.7976
  13   0.0000      -0.007058        -0.1921
  14   0.0000       0.014492         0.3944
  15   0.0000       0.015983         0.4349

                 SPIN DOWN ORBITALS
  NO   OCC          E(Eh)            E(eV)
   0   1.0000     -18.857332      -513.1341
   1   1.0000     -14.049922      -382.3178
   2   1.0000     -10.037405      -273.1317
   3   1.0000      -1.070810       -29.1382
   4   1.0000      -0.844628       -22.9835
   5   1.0000      -0.503280       -13.6950
   6   1.0000      -0.449293       -12.2259
   7   1.0000      -0.447152       -12.1676
   8   1.0000      -0.369947       -10.0668
   9   1.0000      -0.278111        -7.5678
  10   0.0000      -0.261503        -7.1159
  11   0.0000      -0.026023        -0.7081
  12   0.0000      -0.003173        -0.0864
  13   0.0000       0.002931         0.0798
  14   0.0000       0.016252         0.4422

MULLIKEN ATOMIC CHARGES AND SPIN POPULATIONS
--------------------------------------------
   0 N :   -0.062784    0.723205
   1 C :    0.102297   -0.058705
   2 O :   -0.039513    0.335501
Sum of atomic charges         :    0.0000000

LOEWDIN ATOMIC CHARGES AND SPIN POPULATIONS
-------------------------------------------
   0 N :    0.192145    0.529099
   1 C :   -0.482495    0.198018
   2 O :    0.290350    0.272884

  Mayer bond orders larger than 0.1
B(  0-N ,  1-C ) :   2.1326 B(  0-N ,  2-O ) :   0.2172 B(  1-C ,  2-O ) :   2.0206

FINAL SINGLE POINT ENERGY      -167.906363671606

DIPOLE MOMENT
-------------
                                X             Y             Z
Electronic contribution:     -0.00000       0.00000       0.32935
Nuclear contribution   :      0.00000      -0.00000       0.00975
                        -----------------------------------------
Total Dipole Moment    :     -0.00000       0.00000       0.33910
                        -----------------------------------------
Magnitude (a.u.)       :      0.33910
Magnitude (Debye)      :      0.86191

Rotational constants in cm-1:     0.000000     0.390178     0.390178
Rotational constants in MHz :     0.000000 11697.239848 11697.239848

                             ****ORCA TERMINATED NORMALLY****
TOTAL RUN TIME: 0 days 2 hours 55 minutes 21 seconds 755 msec
