                         Program Version 4.1.2  - RELEASE  -
|  1> !uks pbe nori aug-pc-4 grid7 nofinalgrid verytightscf
|  2>
|  3> %maxcore 1500
|  4>
|  5> %pal nprocs 1 end
|  6>
|  7> %scf
|  8> 	maxiter 200
|  9> end
| 10> %elprop
| 11> 	dipole true
| 12> 	 polar 1
| 13> 	 maxiter 200
| 14> end
| 15>
| 16> * xyz 0 1
| 17> Ne 0.0 0.0 0.0
| 18> *
| 19>
| 20>                          ****END OF INPUT****

CARTESIAN COORDINATES (ANGSTROEM)
---------------------------------
  Ne     0.000000    0.000000    0.000000

 Total Charge           Charge          ....    0
 Multiplicity           Mult            ....    1
 Number of Electrons    NEL             ....   10
 Basis Dimension        Dim             ....  145

ORBITAL ENERGIES
----------------
                 SPIN UP ORBITALS
  NO   OCC          E(Eh)            E(eV)
   0   1.0000     -30.489359      -829.6576
   1   1.0000      -1.333183       -36.2778
   2   1.0000      -0.490504       -13.3473
   3   1.0000      -0.490504       -13.3473
   4   1.0000      -0.490504       -13.3473
   5   0.0000       0.042022         1.1435
   6   0.0000       0.061204         1.6654
   7   0.0000       0.061204         1.6654
   8   0.0000       0.061204         1.6654
   9   0.0000       0.280017         7.6196

                 SPIN DOWN ORBITALS
  NO   OCC          E(Eh)            E(eV)
   0   1.0000     -30.489359      -829.6576
   1   1.0000      -1.333183       -36.2778
   2   1.0000      -0.490504       -13.3473
   3   1.0000      -0.490504       -13.3473
   4   1.0000      -0.490504       -13.3473
   5   0.0000       0.042022         1.1435
   6   0.0000       0.061204         1.6654
   7   0.0000       0.061204         1.6654
   8   0.0000       0.061204         1.6654
   9   0.0000       0.280017         7.6196

MULLIKEN ATOMIC CHARGES AND SPIN POPULATIONS
--------------------------------------------
   0 Ne:   -0.000000    0.000000
Sum of atomic charges         :   -0.0000000

LOEWDIN ATOMIC CHARGES AND SPIN POPULATIONS
-------------------------------------------
   0 Ne:   -0.000000    0.000000

FINAL SINGLE POINT ENERGY      -128.866429043144

DIPOLE MOMENT
-------------
                                X             Y             Z
Electronic contribution:      0.00000      -0.00000      -0.00000
Nuclear contribution   :      0.00000       0.00000       0.00000
                        -----------------------------------------
Total Dipole Moment    :      0.00000      -0.00000      -0.00000
                        -----------------------------------------
Magnitude (a.u.)       :      0.00000
Magnitude (Debye)      :      0.00000

Rotational constants in cm-1:     0.000000     0.000000     0.000000
Rotational constants in MHz :     0.000000     0.000000     0.000000

                             ****ORCA TERMINATED NORMALLY****
TOTAL RUN TIME: 0 days 0 hours 0 minutes 24 seconds 66 msec
