                         Program Version 4.1.2  - RELEASE  -
|  1> !uks pbe nori aug-pc-4 grid7 nofinalgrid verytightscf
|  2>
|  3> %maxcore 1500
|  4>
|  5> %pal nprocs 1 end
|  6>
|  7> %scf
|  8> 	maxiter 200
|  9> end
| 10> %elprop
| 11> 	dipole true
| 12> 	 polar 1
| 13> 	 maxiter 200
| 14> end
| 15>
| 16> * xyz 0 1
| 17> Cl 0.0000000000 0.0000000000 0.0000000000
| 18> N 0.0000000000 0.0000000000 1.7475500000
| 19> H 0.9877064288 0.0000000000 1.9857191054
| 20> H -0.3322887804 -0.9301334032 1.9857191227
| 21> *
| 22>
| 23>                          ****END OF INPUT****

CARTESIAN COORDINATES (ANGSTROEM)
---------------------------------
  Cl     0.000000    0.000000    0.000000
  N      0.000000    0.000000    1.747550
  H      0.987706    0.000000    1.985719
  H     -0.332289   -0.930133    1.985719

 Total Charge           Charge          ....    0
 Multiplicity           Mult            ....    1
 Number of Electrons    NEL             ....   26
 Basis Dimension        Dim             ....  462

ORBITAL ENERGIES
----------------
                 SPIN UP ORBITALS
  NO   OCC          E(Eh)            E(eV)
   0   1.0000    -100.667109     -2739.2913
   1   1.0000     -14.038693      -382.0123
   2   1.0000      -9.188888      -250.0424
   3   1.0000      -7.014418      -190.8720
   4   1.0000      -7.000526      -190.4940
   5   1.0000      -7.000036      -190.4807
   6   1.0000      -0.868536       -23.6341
   7   1.0000      -0.693390       -18.8681
   8   1.0000      -0.470302       -12.7976
   9   1.0000      -0.423774       -11.5315
  10   1.0000      -0.333236        -9.0678
  11   1.0000      -0.275362        -7.4930
  12   1.0000      -0.226525        -6.1641
  13   0.0000      -0.075867        -2.0644
  14   0.0000      -0.023052        -0.6273
  15   0.0000       0.007667         0.2086
  16   0.0000       0.016782         0.4567
  17   0.0000       0.020798         0.5659

                 SPIN DOWN ORBITALS
  NO   OCC          E(Eh)            E(eV)
   0   1.0000    -100.667109     -2739.2913
   1   1.0000     -14.038693      -382.0123
   2   1.0000      -9.188888      -250.0424
   3   1.0000      -7.014418      -190.8720
   4   1.0000      -7.000526      -190.4940
   5   1.0000      -7.000036      -190.4807
   6   1.0000      -0.868536       -23.6341
   7   1.0000      -0.693390       -18.8681
   8   1.0000      -0.470302       -12.7976
   9   1.0000      -0.423774       -11.5315
  10   1.0000      -0.333236        -9.0678
  11   1.0000      -0.275362        -7.4930
  12   1.0000      -0.226525        -6.1641
  13   0.0000      -0.075867        -2.0644
  14   0.0000      -0.023052        -0.6273
  15   0.0000       0.007667         0.2086
  16   0.0000       0.016782         0.4567
  17   0.0000       0.020798         0.5659

MULLIKEN ATOMIC CHARGES AND SPIN POPULATIONS
--------------------------------------------
   0 Cl:   -0.121985   -0.000000
   1 N :   -0.185313    0.000000
   2 H :    0.153648   -0.000000
   3 H :    0.153650    0.000000
Sum of atomic charges         :    0.0000000

LOEWDIN ATOMIC CHARGES AND SPIN POPULATIONS
-------------------------------------------
   0 Cl:    1.523036    0.000000
   1 N :    0.285045    0.000000
   2 H :   -0.904040   -0.000000
   3 H :   -0.904040    0.000000

  Mayer bond orders larger than 0.1
B(  0-Cl,  1-N ) :   1.0695 B(  0-Cl,  2-H ) :   0.1055 B(  0-Cl,  3-H ) :   0.1055
B(  1-N ,  2-H ) :   0.9433 B(  1-N ,  3-H ) :   0.9432

FINAL SINGLE POINT ENERGY      -515.922449001182

DIPOLE MOMENT
-------------
                                X             Y             Z
Electronic contribution:     -0.26292       0.37313      -2.97802
Nuclear contribution   :      0.60797      -0.86280       3.43695
                        -----------------------------------------
Total Dipole Moment    :      0.34505      -0.48967       0.45893
                        -----------------------------------------
Magnitude (a.u.)       :      0.75462
Magnitude (Debye)      :      1.91810

Rotational constants in cm-1:     9.049835     0.473605     0.463632
Rotational constants in MHz : 271307.221348 14198.317814 13899.341134

                             ****ORCA TERMINATED NORMALLY****
TOTAL RUN TIME: 0 days 3 hours 12 minutes 37 seconds 997 msec
