                         Program Version 4.1.2  - RELEASE  -
|  1> !uks pbe nori aug-pc-4 grid7 nofinalgrid verytightscf
|  2>
|  3> %maxcore 1500
|  4>
|  5> %pal nprocs 1 end
|  6>
|  7> %scf
|  8> 	maxiter 200
|  9> end
| 10> %elprop
| 11> 	dipole true
| 12> 	 polar 1
| 13> 	 maxiter 200
| 14> end
| 15>
| 16> * xyz 0 1
| 17> N 0.0000000000 0.0000000000 0.0000000000
| 18> H 0.0000000000 0.0000000000 1.0171780000
| 19> H 0.9838480958 0.0000000000 -0.2582518307
| 20> F -0.3678444665 1.3400564697 -0.2837498835
| 21> *
| 22>
| 23>                          ****END OF INPUT****

CARTESIAN COORDINATES (ANGSTROEM)
---------------------------------
  N      0.000000    0.000000    0.000000
  H      0.000000    0.000000    1.017178
  H      0.983848    0.000000   -0.258252
  F     -0.367844    1.340056   -0.283750

 Total Charge           Charge          ....    0
 Multiplicity           Mult            ....    1
 Number of Electrons    NEL             ....   18
 Basis Dimension        Dim             ....  466

ORBITAL ENERGIES
----------------
                 SPIN UP ORBITALS
  NO   OCC          E(Eh)            E(eV)
   0   1.0000     -24.265332      -660.2932
   1   1.0000     -14.062518      -382.6606
   2   1.0000      -1.115017       -30.3411
   3   1.0000      -0.775402       -21.0998
   4   1.0000      -0.485649       -13.2152
   5   1.0000      -0.477752       -13.0003
   6   1.0000      -0.387445       -10.5429
   7   1.0000      -0.323526        -8.8036
   8   1.0000      -0.238597        -6.4925
   9   0.0000      -0.036794        -1.0012
  10   0.0000      -0.026638        -0.7248
  11   0.0000       0.009604         0.2613
  12   0.0000       0.022455         0.6110
  13   0.0000       0.033411         0.9092

                 SPIN DOWN ORBITALS
  NO   OCC          E(Eh)            E(eV)
   0   1.0000     -24.265332      -660.2932
   1   1.0000     -14.062518      -382.6606
   2   1.0000      -1.115017       -30.3411
   3   1.0000      -0.775402       -21.0998
   4   1.0000      -0.485649       -13.2152
   5   1.0000      -0.477752       -13.0003
   6   1.0000      -0.387445       -10.5429
   7   1.0000      -0.323526        -8.8036
   8   1.0000      -0.238597        -6.4925
   9   0.0000      -0.036794        -1.0012
  10   0.0000      -0.026638        -0.7248
  11   0.0000       0.009604         0.2613
  12   0.0000       0.022455         0.6110
  13   0.0000       0.033411         0.9092

MULLIKEN ATOMIC CHARGES AND SPIN POPULATIONS
--------------------------------------------
   0 N :   -0.026793    0.000000
   1 H :    0.139039   -0.000000
   2 H :    0.139093   -0.000000
   3 F :   -0.251339   -0.000000
Sum of atomic charges         :    0.0000000

LOEWDIN ATOMIC CHARGES AND SPIN POPULATIONS
-------------------------------------------
   0 N :    0.868037    0.000000
   1 H :   -0.543666   -0.000000
   2 H :   -0.543666   -0.000000
   3 F :    0.219294    0.000000

  Mayer bond orders larger than 0.1
B(  0-N ,  1-H ) :   0.9845 B(  0-N ,  2-H ) :   0.9844 B(  0-N ,  3-F ) :   0.8552

FINAL SINGLE POINT ENERGY      -155.643514761888

DIPOLE MOMENT
-------------
                                X             Y             Z
Electronic contribution:     -0.79105       1.67587      -0.61020
Nuclear contribution   :      1.42742      -1.93608       1.10109
                        -----------------------------------------
Total Dipole Moment    :      0.63637      -0.26021       0.49089
                        -----------------------------------------
Magnitude (a.u.)       :      0.84478
Magnitude (Debye)      :      2.14726

Rotational constants in cm-1:     8.924455     0.894334     0.861143
Rotational constants in MHz : 267548.442513 26811.452808 25816.415131

                             ****ORCA TERMINATED NORMALLY****
TOTAL RUN TIME: 0 days 2 hours 38 minutes 19 seconds 651 msec
