                         Program Version 4.1.2  - RELEASE  -
|  1> !uks pbe nori aug-pc-4 grid7 nofinalgrid verytightscf
|  2>
|  3> %maxcore 1500
|  4>
|  5> %pal nprocs 4 end
|  6>
|  7> %scf
|  8> 	maxiter 200
|  9> end
| 10> %elprop
| 11> 	dipole true
| 12> 	 polar 1
| 13> 	 maxiter 200
| 14> end
| 15>
| 16> * xyz 0 1
| 17> N -0.0094 0.7040 0.0000
| 18> O -0.0094 -0.7490 0.0000
| 19> H -0.9525 -0.9386 0.0000
| 20> H 0.5469 1.0012 0.7965
| 21> H 0.5469 1.0012 -0.7965
| 22> *
| 23>
| 24>                          ****END OF INPUT****

CARTESIAN COORDINATES (ANGSTROEM)
---------------------------------
  N     -0.009400    0.704000    0.000000
  O     -0.009400   -0.749000    0.000000
  H     -0.952500   -0.938600    0.000000
  H      0.546900    1.001200    0.796500
  H      0.546900    1.001200   -0.796500

 Total Charge           Charge          ....    0
 Multiplicity           Mult            ....    1
 Number of Electrons    NEL             ....   18
 Basis Dimension        Dim             ....  554

ORBITAL ENERGIES
----------------
                 SPIN UP ORBITALS
  NO   OCC          E(Eh)            E(eV)
   0   1.0000     -18.780771      -511.0507
   1   1.0000     -14.022932      -381.5834
   2   1.0000      -0.968682       -26.3592
   3   1.0000      -0.739761       -20.1299
   4   1.0000      -0.458699       -12.4818
   5   1.0000      -0.447826       -12.1860
   6   1.0000      -0.391804       -10.6615
   7   1.0000      -0.250556        -6.8180
   8   1.0000      -0.222473        -6.0538
   9   0.0000      -0.024499        -0.6667
  10   0.0000      -0.016382        -0.4458
  11   0.0000       0.012551         0.3415
  12   0.0000       0.017196         0.4679
  13   0.0000       0.034096         0.9278

                 SPIN DOWN ORBITALS
  NO   OCC          E(Eh)            E(eV)
   0   1.0000     -18.780771      -511.0507
   1   1.0000     -14.022932      -381.5834
   2   1.0000      -0.968682       -26.3592
   3   1.0000      -0.739761       -20.1299
   4   1.0000      -0.458699       -12.4818
   5   1.0000      -0.447826       -12.1860
   6   1.0000      -0.391804       -10.6615
   7   1.0000      -0.250556        -6.8180
   8   1.0000      -0.222473        -6.0538
   9   0.0000      -0.024499        -0.6667
  10   0.0000      -0.016382        -0.4458
  11   0.0000       0.012551         0.3415
  12   0.0000       0.017196         0.4679
  13   0.0000       0.034096         0.9278

MULLIKEN ATOMIC CHARGES AND SPIN POPULATIONS
--------------------------------------------
   0 N :   -0.178127   -0.000000
   1 O :   -0.200394   -0.000000
   2 H :    0.166935    0.000000
   3 H :    0.105801    0.000000
   4 H :    0.105784   -0.000000
Sum of atomic charges         :   -0.0000000

LOEWDIN ATOMIC CHARGES AND SPIN POPULATIONS
-------------------------------------------
   0 N :    0.951349   -0.000000
   1 O :    0.904339    0.000000
   2 H :   -0.793834    0.000000
   3 H :   -0.530927    0.000000
   4 H :   -0.530927   -0.000000

  Mayer bond orders larger than 0.1
B(  0-N ,  1-O ) :   0.8424 B(  0-N ,  3-H ) :   1.0337 B(  0-N ,  4-H ) :   1.0337
B(  1-O ,  2-H ) :   1.0258

FINAL SINGLE POINT ENERGY      -131.645550827599

DIPOLE MOMENT
-------------
                                X             Y             Z
Electronic contribution:     -0.10219      -0.83643       0.00000
Nuclear contribution   :      0.14436       1.08095       0.00000
                        -----------------------------------------
Total Dipole Moment    :      0.04216       0.24452       0.00000
                        -----------------------------------------
Magnitude (a.u.)       :      0.24813
Magnitude (Debye)      :      0.63070

Rotational constants in cm-1:     6.571334     0.830213     0.829911
Rotational constants in MHz : 197003.632915 24889.156219 24880.112755

                             ****ORCA TERMINATED NORMALLY****
TOTAL RUN TIME: 0 days 1 hours 59 minutes 25 seconds 496 msec
