                         Program Version 4.1.2  - RELEASE  -
|  1> !uks pbe nori aug-pc-4 grid7 nofinalgrid verytightscf
|  2>
|  3> %maxcore 1500
|  4>
|  5> %pal nprocs 1 end
|  6>
|  7> %scf
|  8> 	maxiter 200
|  9> end
| 10> %elprop
| 11> 	dipole true
| 12> 	 polar 1
| 13> 	 maxiter 200
| 14> end
| 15>
| 16> * xyz 0 1
| 17> N 0.0000 0.0000 0.0000
| 18> H 0.0000 -0.9377 -0.3816
| 19> H 0.8121 0.4689 -0.3816
| 20> H -0.8121 0.4689 -0.3816
| 21> *
| 22>
| 23>                          ****END OF INPUT****

CARTESIAN COORDINATES (ANGSTROEM)
---------------------------------
  N      0.000000    0.000000    0.000000
  H      0.000000   -0.937700   -0.381600
  H      0.812100    0.468900   -0.381600
  H     -0.812100    0.468900   -0.381600

 Total Charge           Charge          ....    0
 Multiplicity           Mult            ....    1
 Number of Electrons    NEL             ....   10
 Basis Dimension        Dim             ....  409

ORBITAL ENERGIES
----------------
                 SPIN UP ORBITALS
  NO   OCC          E(Eh)            E(eV)
   0   1.0000     -13.963453      -379.9649
   1   1.0000      -0.779004       -21.1978
   2   1.0000      -0.415646       -11.3103
   3   1.0000      -0.415630       -11.3099
   4   1.0000      -0.227196        -6.1823
   5   0.0000      -0.027232        -0.7410
   6   0.0000       0.014118         0.3842
   7   0.0000       0.014118         0.3842
   8   0.0000       0.024186         0.6581
   9   0.0000       0.040783         1.1098

                 SPIN DOWN ORBITALS
  NO   OCC          E(Eh)            E(eV)
   0   1.0000     -13.963453      -379.9649
   1   1.0000      -0.779004       -21.1978
   2   1.0000      -0.415646       -11.3103
   3   1.0000      -0.415630       -11.3099
   4   1.0000      -0.227196        -6.1823
   5   0.0000      -0.027232        -0.7410
   6   0.0000       0.014118         0.3842
   7   0.0000       0.014118         0.3842
   8   0.0000       0.024186         0.6581
   9   0.0000       0.040783         1.1098

MULLIKEN ATOMIC CHARGES AND SPIN POPULATIONS
--------------------------------------------
   0 N :   -0.588885   -0.000000
   1 H :    0.196279    0.000000
   2 H :    0.196309   -0.000000
   3 H :    0.196298   -0.000000
Sum of atomic charges         :    0.0000000

LOEWDIN ATOMIC CHARGES AND SPIN POPULATIONS
-------------------------------------------
   0 N :    1.388413    0.000000
   1 H :   -0.462850    0.000000
   2 H :   -0.462781   -0.000000
   3 H :   -0.462781    0.000000

  Mayer bond orders larger than 0.1
B(  0-N ,  1-H ) :   0.9676 B(  0-N ,  2-H ) :   0.9676 B(  0-N ,  3-H ) :   0.9676

FINAL SINGLE POINT ENERGY       -56.517271579622

DIPOLE MOMENT
-------------
                                X             Y             Z
Electronic contribution:      0.00000      -0.00006       0.30271
Nuclear contribution   :      0.00000       0.00008      -0.88295
                        -----------------------------------------
Total Dipole Moment    :      0.00000       0.00002      -0.58024
                        -----------------------------------------
Magnitude (a.u.)       :      0.58024
Magnitude (Debye)      :      1.47486

Rotational constants in cm-1:     9.964752     9.964735     6.339527
Rotational constants in MHz : 298735.758776 298735.244283 190054.249093

                             ****ORCA TERMINATED NORMALLY****
TOTAL RUN TIME: 0 days 1 hours 28 minutes 24 seconds 846 msec
