                         Program Version 4.1.2  - RELEASE  -
|  1> !uks pbe nori aug-pc-4 grid7 nofinalgrid verytightscf
|  2>
|  3> %maxcore 1500
|  4>
|  5> %pal nprocs 1 end
|  6>
|  7> %scf
|  8> 	maxiter 200
|  9> end
| 10> %elprop
| 11> 	dipole true
| 12> 	 polar 1
| 13> 	 maxiter 200
| 14> end
| 15>
| 16> * xyz 0 3
| 17> N 0 0 0
| 18> H 0 0 1.0362
| 19> *
| 20>
| 21>                          ****END OF INPUT****

CARTESIAN COORDINATES (ANGSTROEM)
---------------------------------
  N      0.000000    0.000000    0.000000
  H      0.000000    0.000000    1.036200

 Total Charge           Charge          ....    0
 Multiplicity           Mult            ....    3
 Number of Electrons    NEL             ....    8
 Basis Dimension        Dim             ....  233

ORBITAL ENERGIES
----------------
                 SPIN UP ORBITALS
  NO   OCC          E(Eh)            E(eV)
   0   1.0000     -14.067727      -382.8023
   1   1.0000      -0.768647       -20.9159
   2   1.0000      -0.357884        -9.7385
   3   1.0000      -0.291150        -7.9226
   4   1.0000      -0.291150        -7.9226
   5   0.0000      -0.024496        -0.6666
   6   0.0000       0.025604         0.6967
   7   0.0000       0.025604         0.6967
   8   0.0000       0.025694         0.6992
   9   0.0000       0.044020         1.1979

                 SPIN DOWN ORBITALS
  NO   OCC          E(Eh)            E(eV)
   0   1.0000     -14.030458      -381.7882
   1   1.0000      -0.674680       -18.3590
   2   1.0000      -0.318219        -8.6592
   3   0.0000      -0.158757        -4.3200
   4   0.0000      -0.158757        -4.3200
   5   0.0000      -0.011237        -0.3058
   6   0.0000       0.029148         0.7932
   7   0.0000       0.039360         1.0710

MULLIKEN ATOMIC CHARGES AND SPIN POPULATIONS
--------------------------------------------
   0 N :   -0.164986    2.003915
   1 H :    0.164986   -0.003915
Sum of atomic charges         :    0.0000000

LOEWDIN ATOMIC CHARGES AND SPIN POPULATIONS
-------------------------------------------
   0 N :    0.759954    1.597845
   1 H :   -0.759954    0.402155

  Mayer bond orders larger than 0.1
B(  0-N ,  1-H ) :   0.9754

FINAL SINGLE POINT ENERGY       -55.176843207479

DIPOLE MOMENT
-------------
                                X             Y             Z
Electronic contribution:      0.00000       0.00000      -0.32349
Nuclear contribution   :      0.00000       0.00000       0.90649
                        -----------------------------------------
Total Dipole Moment    :      0.00000       0.00000       0.58301
                        -----------------------------------------
Magnitude (a.u.)       :      0.58301
Magnitude (Debye)      :      1.48188

Rotational constants in cm-1:     0.000000    16.696652    16.696652
Rotational constants in MHz :     0.000000 500553.040588 500553.040588

                             ****ORCA TERMINATED NORMALLY****
TOTAL RUN TIME: 0 days 0 hours 12 minutes 12 seconds 981 msec
