                         Program Version 4.1.2  - RELEASE  -
|  1> !uks pbe nori aug-pc-4 grid7 nofinalgrid verytightscf
|  2>
|  3> %maxcore 1500
|  4>
|  5> %pal nprocs 1 end
|  6>
|  7> %scf
|  8> 	maxiter 200
|  9> end
| 10> %elprop
| 11> 	dipole true
| 12> 	 polar 1
| 13> 	 maxiter 200
| 14> end
| 15>
| 16> * xyz 0 1
| 17> N 0.0000 0.0000 1.4909
| 18> P 0.0000 0.0000 0.0000
| 19> *
| 20>
| 21>                          ****END OF INPUT****

CARTESIAN COORDINATES (ANGSTROEM)
---------------------------------
  N      0.000000    0.000000    1.490900
  P      0.000000    0.000000    0.000000

 Total Charge           Charge          ....    0
 Multiplicity           Mult            ....    1
 Number of Electrons    NEL             ....   22
 Basis Dimension        Dim             ....  286

ORBITAL ENERGIES
----------------
                 SPIN UP ORBITALS
  NO   OCC          E(Eh)            E(eV)
   0   1.0000     -76.325546     -2076.9237
   1   1.0000     -14.018902      -381.4737
   2   1.0000      -6.347838      -172.7335
   3   1.0000      -4.564167      -124.1973
   4   1.0000      -4.564167      -124.1973
   5   1.0000      -4.558043      -124.0307
   6   1.0000      -0.778332       -21.1795
   7   1.0000      -0.451004       -12.2725
   8   1.0000      -0.306565        -8.3421
   9   1.0000      -0.306565        -8.3421
  10   1.0000      -0.284882        -7.7520
  11   0.0000      -0.125075        -3.4035
  12   0.0000      -0.125075        -3.4035
  13   0.0000      -0.012515        -0.3406
  14   0.0000      -0.006395        -0.1740
  15   0.0000       0.016771         0.4564

                 SPIN DOWN ORBITALS
  NO   OCC          E(Eh)            E(eV)
   0   1.0000     -76.325546     -2076.9237
   1   1.0000     -14.018902      -381.4737
   2   1.0000      -6.347838      -172.7335
   3   1.0000      -4.564167      -124.1973
   4   1.0000      -4.564167      -124.1973
   5   1.0000      -4.558043      -124.0307
   6   1.0000      -0.778332       -21.1795
   7   1.0000      -0.451004       -12.2725
   8   1.0000      -0.306565        -8.3421
   9   1.0000      -0.306565        -8.3421
  10   1.0000      -0.284882        -7.7520
  11   0.0000      -0.125075        -3.4035
  12   0.0000      -0.125075        -3.4035
  13   0.0000      -0.012515        -0.3406
  14   0.0000      -0.006395        -0.1740
  15   0.0000       0.016771         0.4564

MULLIKEN ATOMIC CHARGES AND SPIN POPULATIONS
--------------------------------------------
   0 N :   -0.208933   -0.000000
   1 P :    0.208933    0.000000
Sum of atomic charges         :   -0.0000000

LOEWDIN ATOMIC CHARGES AND SPIN POPULATIONS
-------------------------------------------
   0 N :   -0.815991   -0.000000
   1 P :    0.815991    0.000000

  Mayer bond orders larger than 0.1
B(  0-N ,  1-P ) :   2.9046

FINAL SINGLE POINT ENERGY      -395.900878467708

DIPOLE MOMENT
-------------
                                X             Y             Z
Electronic contribution:     -0.00000      -0.00000      -1.49113
Nuclear contribution   :      0.00000       0.00000       0.42047
                        -----------------------------------------
Total Dipole Moment    :     -0.00000      -0.00000      -1.07066
                        -----------------------------------------
Magnitude (a.u.)       :      1.07066
Magnitude (Debye)      :      2.72139

Rotational constants in cm-1:     0.000000     0.786297     0.786297
Rotational constants in MHz :     0.000000 23572.587586 23572.587586

                             ****ORCA TERMINATED NORMALLY****
TOTAL RUN TIME: 0 days 0 hours 59 minutes 40 seconds 826 msec
