                         Program Version 4.1.2  - RELEASE  -
|  1> !uks pbe nori aug-pc-4 grid7 nofinalgrid verytightscf
|  2>
|  3> %maxcore 1500
|  4>
|  5> %pal nprocs 1 end
|  6>
|  7> %scf
|  8> 	maxiter 200
|  9> end
| 10> %elprop
| 11> 	dipole true
| 12> 	 polar 1
| 13> 	 maxiter 200
| 14> end
| 15>
| 16> * xyz 0 1
| 17> O 0.0000 0.0000 0.0000
| 18> O 0.0000 1.0885 0.6697
| 19> O 0.0000 -1.0885 0.6697
| 20> *
| 21>
| 22>                          ****END OF INPUT****

CARTESIAN COORDINATES (ANGSTROEM)
---------------------------------
  O      0.000000    0.000000    0.000000
  O      0.000000    1.088500    0.669700
  O      0.000000   -1.088500    0.669700

 Total Charge           Charge          ....    0
 Multiplicity           Mult            ....    1
 Number of Electrons    NEL             ....   24
 Basis Dimension        Dim             ....  435

ORBITAL ENERGIES
----------------
                 SPIN UP ORBITALS
  NO   OCC          E(Eh)            E(eV)
   0   1.0000     -19.042139      -518.1629
   1   1.0000     -18.868556      -513.4395
   2   1.0000     -18.868556      -513.4395
   3   1.0000      -1.260302       -34.2946
   4   1.0000      -1.008295       -27.4371
   5   1.0000      -0.715602       -19.4725
   6   1.0000      -0.546846       -14.8804
   7   1.0000      -0.542008       -14.7488
   8   1.0000      -0.531377       -14.4595
   9   1.0000      -0.336532        -9.1575
  10   1.0000      -0.297152        -8.0859
  11   1.0000      -0.294090        -8.0026
  12   0.0000      -0.228328        -6.2131
  13   0.0000      -0.004201        -0.1143
  14   0.0000       0.002770         0.0754
  15   0.0000       0.016668         0.4536
  16   0.0000       0.025156         0.6845

                 SPIN DOWN ORBITALS
  NO   OCC          E(Eh)            E(eV)
   0   1.0000     -19.042139      -518.1629
   1   1.0000     -18.868556      -513.4395
   2   1.0000     -18.868556      -513.4395
   3   1.0000      -1.260302       -34.2946
   4   1.0000      -1.008295       -27.4371
   5   1.0000      -0.715602       -19.4725
   6   1.0000      -0.546846       -14.8804
   7   1.0000      -0.542008       -14.7488
   8   1.0000      -0.531377       -14.4595
   9   1.0000      -0.336532        -9.1575
  10   1.0000      -0.297152        -8.0859
  11   1.0000      -0.294090        -8.0026
  12   0.0000      -0.228328        -6.2131
  13   0.0000      -0.004201        -0.1143
  14   0.0000       0.002770         0.0754
  15   0.0000       0.016668         0.4536
  16   0.0000       0.025156         0.6845

MULLIKEN ATOMIC CHARGES AND SPIN POPULATIONS
--------------------------------------------
   0 O :    0.337372    0.000000
   1 O :   -0.168685    0.000000
   2 O :   -0.168688   -0.000000
Sum of atomic charges         :    0.0000000

LOEWDIN ATOMIC CHARGES AND SPIN POPULATIONS
-------------------------------------------
   0 O :   -0.178168    0.000000
   1 O :    0.089085    0.000000
   2 O :    0.089084   -0.000000

  Mayer bond orders larger than 0.1
B(  0-O ,  1-O ) :   1.4102 B(  0-O ,  2-O ) :   1.4102 B(  1-O ,  2-O ) :   0.5886

FINAL SINGLE POINT ENERGY      -225.340631006212

DIPOLE MOMENT
-------------
                                X             Y             Z
Electronic contribution:      0.00000       0.00000      -0.25085
Nuclear contribution   :      0.00000       0.00000      -0.00000
                        -----------------------------------------
Total Dipole Moment    :      0.00000       0.00000      -0.25085
                        -----------------------------------------
Magnitude (a.u.)       :      0.25085
Magnitude (Debye)      :      0.63760

Rotational constants in cm-1:     3.523990     0.444649     0.394830
Rotational constants in MHz : 105646.576140 13330.237990 11836.709641

                             ****ORCA TERMINATED NORMALLY****
TOTAL RUN TIME: 0 days 2 hours 53 minutes 25 seconds 29 msec
