                         Program Version 4.1.2  - RELEASE  -
|  1> !uks pbe nori aug-pc-4 grid7 nofinalgrid verytightscf
|  2>
|  3> %maxcore 1500
|  4>
|  5> %pal nprocs 4 end
|  6>
|  7> %scf
|  8> 	maxiter 200
|  9> end
| 10> %elprop
| 11> 	dipole true
| 12> 	 polar 1
| 13> 	 maxiter 200
| 14> end
| 15>
| 16> * xyz 0 1
| 17> O 0.0000 0.0000 0.7788
| 18> Cl 0.0000 1.3966 -0.1832
| 19> Cl 0.0000 -1.3966 -0.1832
| 20> *
| 21>
| 22>                          ****END OF INPUT****

CARTESIAN COORDINATES (ANGSTROEM)
---------------------------------
  O      0.000000    0.000000    0.778800
  Cl     0.000000    1.396600   -0.183200
  Cl     0.000000   -1.396600   -0.183200

 Total Charge           Charge          ....    0
 Multiplicity           Mult            ....    1
 Number of Electrons    NEL             ....   42
 Basis Dimension        Dim             ....  427

ORBITAL ENERGIES
----------------
                 SPIN UP ORBITALS
  NO   OCC          E(Eh)            E(eV)
   0   1.0000    -100.713200     -2740.5455
   1   1.0000    -100.713200     -2740.5455
   2   1.0000     -18.886439      -513.9261
   3   1.0000      -9.233305      -251.2510
   4   1.0000      -9.233305      -251.2510
   5   1.0000      -7.061155      -192.1438
   6   1.0000      -7.061155      -192.1438
   7   1.0000      -7.044294      -191.6850
   8   1.0000      -7.044294      -191.6850
   9   1.0000      -7.043373      -191.6599
  10   1.0000      -7.043373      -191.6599
  11   1.0000      -1.029153       -28.0047
  12   1.0000      -0.800722       -21.7887
  13   1.0000      -0.701191       -19.0804
  14   1.0000      -0.496215       -13.5027
  15   1.0000      -0.447184       -12.1685
  16   1.0000      -0.414688       -11.2842
  17   1.0000      -0.311199        -8.4682
  18   1.0000      -0.310955        -8.4615
  19   1.0000      -0.296985        -8.0814
  20   1.0000      -0.247719        -6.7408
  21   0.0000      -0.169425        -4.6103
  22   0.0000      -0.105404        -2.8682
  23   0.0000      -0.008417        -0.2290
  24   0.0000       0.011458         0.3118
  25   0.0000       0.019024         0.5177

                 SPIN DOWN ORBITALS
  NO   OCC          E(Eh)            E(eV)
   0   1.0000    -100.713200     -2740.5455
   1   1.0000    -100.713200     -2740.5455
   2   1.0000     -18.886439      -513.9261
   3   1.0000      -9.233305      -251.2510
   4   1.0000      -9.233305      -251.2510
   5   1.0000      -7.061155      -192.1438
   6   1.0000      -7.061155      -192.1438
   7   1.0000      -7.044294      -191.6850
   8   1.0000      -7.044294      -191.6850
   9   1.0000      -7.043373      -191.6599
  10   1.0000      -7.043373      -191.6599
  11   1.0000      -1.029153       -28.0047
  12   1.0000      -0.800722       -21.7887
  13   1.0000      -0.701191       -19.0804
  14   1.0000      -0.496215       -13.5027
  15   1.0000      -0.447184       -12.1685
  16   1.0000      -0.414688       -11.2842
  17   1.0000      -0.311199        -8.4682
  18   1.0000      -0.310955        -8.4615
  19   1.0000      -0.296985        -8.0814
  20   1.0000      -0.247719        -6.7408
  21   0.0000      -0.169425        -4.6103
  22   0.0000      -0.105404        -2.8682
  23   0.0000      -0.008417        -0.2290
  24   0.0000       0.011458         0.3118
  25   0.0000       0.019024         0.5177

MULLIKEN ATOMIC CHARGES AND SPIN POPULATIONS
--------------------------------------------
   0 O :    0.195783    0.000000
   1 Cl:   -0.097890   -0.000000
   2 Cl:   -0.097893    0.000000
Sum of atomic charges         :    0.0000000

LOEWDIN ATOMIC CHARGES AND SPIN POPULATIONS
-------------------------------------------
   0 O :   -1.632253    0.000000
   1 Cl:    0.816127   -0.000000
   2 Cl:    0.816127    0.000000

  Mayer bond orders larger than 0.1
B(  0-O ,  1-Cl) :   1.0861 B(  0-O ,  2-Cl) :   1.0861 B(  1-Cl,  2-Cl) :   0.2158

FINAL SINGLE POINT ENERGY      -995.154924858485

DIPOLE MOMENT
-------------
                                X             Y             Z
Electronic contribution:      0.00000      -0.00000      -0.67018
Nuclear contribution   :      0.00000       0.00000       0.48702
                        -----------------------------------------
Total Dipole Moment    :      0.00000      -0.00000      -0.18316
                        -----------------------------------------
Magnitude (a.u.)       :      0.18316
Magnitude (Debye)      :      0.46556

Rotational constants in cm-1:     1.395455     0.121890     0.112099
Rotational constants in MHz : 41834.674961  3654.185098  3360.639190

                             ****ORCA TERMINATED NORMALLY****
TOTAL RUN TIME: 0 days 1 hours 22 minutes 28 seconds 319 msec
