                         Program Version 4.1.2  - RELEASE  -
|  1> !uks pbe nori aug-pc-4 grid7 nofinalgrid verytightscf
|  2>
|  3> %maxcore 1500
|  4>
|  5> %pal nprocs 1 end
|  6>
|  7> %scf
|  8> 	maxiter 200
|  9> end
| 10> %elprop
| 11> 	dipole true
| 12> 	 polar 1
| 13> 	 maxiter 200
| 14> end
| 15>
| 16> * xyz 0 2
| 17> O 0.0000 0.0000 0.0000
| 18> Cl 0.0000 0.0000 1.5696
| 19> *
| 20>
| 21>                          ****END OF INPUT****

CARTESIAN COORDINATES (ANGSTROEM)
---------------------------------
  O      0.000000    0.000000    0.000000
  Cl     0.000000    0.000000    1.569600

 Total Charge           Charge          ....    0
 Multiplicity           Mult            ....    2
 Number of Electrons    NEL             ....   25
 Basis Dimension        Dim             ....  286

ORBITAL ENERGIES
----------------
                 SPIN UP ORBITALS
  NO   OCC          E(Eh)            E(eV)
   0   1.0000    -100.747708     -2741.4845
   1   1.0000     -18.840564      -512.6778
   2   1.0000      -9.265183      -252.1184
   3   1.0000      -7.089061      -192.9031
   4   1.0000      -7.083245      -192.7449
   5   1.0000      -7.074054      -192.4948
   6   1.0000      -1.011233       -27.5171
   7   1.0000      -0.723672       -19.6921
   8   1.0000      -0.449500       -12.2315
   9   1.0000      -0.430237       -11.7073
  10   1.0000      -0.397103       -10.8057
  11   1.0000      -0.282474        -7.6865
  12   1.0000      -0.243176        -6.6172
  13   0.0000      -0.093825        -2.5531
  14   0.0000      -0.005560        -0.1513
  15   0.0000       0.021321         0.5802
  16   0.0000       0.023085         0.6282
  17   0.0000       0.027622         0.7516

                 SPIN DOWN ORBITALS
  NO   OCC          E(Eh)            E(eV)
   0   1.0000    -100.745607     -2741.4273
   1   1.0000     -18.824322      -512.2358
   2   1.0000      -9.263163      -252.0635
   3   1.0000      -7.088042      -192.8754
   4   1.0000      -7.077022      -192.5755
   5   1.0000      -7.072829      -192.4615
   6   1.0000      -0.987039       -26.8587
   7   1.0000      -0.698898       -19.0180
   8   1.0000      -0.434294       -11.8178
   9   1.0000      -0.389812       -10.6073
  10   1.0000      -0.387051       -10.5322
  11   1.0000      -0.231309        -6.2942
  12   0.0000      -0.219245        -5.9660
  13   0.0000      -0.082739        -2.2514
  14   0.0000      -0.002210        -0.0601
  15   0.0000       0.023367         0.6359
  16   0.0000       0.024545         0.6679

MULLIKEN ATOMIC CHARGES AND SPIN POPULATIONS
--------------------------------------------
   0 O :   -0.134433    0.647048
   1 Cl:    0.134433    0.352952
Sum of atomic charges         :    0.0000000

LOEWDIN ATOMIC CHARGES AND SPIN POPULATIONS
-------------------------------------------
   0 O :   -0.877785    0.641618
   1 Cl:    0.877785    0.358382

  Mayer bond orders larger than 0.1
B(  0-O ,  1-Cl) :   1.6225

FINAL SINGLE POINT ENERGY      -535.119852852909

DIPOLE MOMENT
-------------
                                X             Y             Z
Electronic contribution:      0.00000       0.00000       1.19979
Nuclear contribution   :      0.00000       0.00000      -0.67108
                        -----------------------------------------
Total Dipole Moment    :      0.00000       0.00000       0.52870
                        -----------------------------------------
Magnitude (a.u.)       :      0.52870
Magnitude (Debye)      :      1.34386

Rotational constants in cm-1:     0.000000     0.620691     0.620691
Rotational constants in MHz :     0.000000 18607.843970 18607.843970

                             ****ORCA TERMINATED NORMALLY****
TOTAL RUN TIME: 0 days 0 hours 54 minutes 58 seconds 186 msec
