                         Program Version 4.1.2  - RELEASE  -
|  1> !uks pbe nori aug-pc-4 grid7 nofinalgrid verytightscf
|  2>
|  3> %maxcore 1500
|  4>
|  5> %pal nprocs 1 end
|  6>
|  7> %scf
|  8> 	maxiter 200
|  9> end
| 10> %elprop
| 11> 	dipole true
| 12> 	 polar 1
| 13> 	 maxiter 200
| 14> end
| 15>
| 16> * xyz 0 1
| 17> O 0.0000 0.0000 0.6049
| 18> F 0.0000 1.1003 -0.2688
| 19> F 0.0000 -1.1003 -0.2688
| 20> *
| 21>
| 22>                          ****END OF INPUT****

CARTESIAN COORDINATES (ANGSTROEM)
---------------------------------
  O      0.000000    0.000000    0.604900
  F      0.000000    1.100300   -0.268800
  F      0.000000   -1.100300   -0.268800

 Total Charge           Charge          ....    0
 Multiplicity           Mult            ....    1
 Number of Electrons    NEL             ....   26
 Basis Dimension        Dim             ....  435

ORBITAL ENERGIES
----------------
                 SPIN UP ORBITALS
  NO   OCC          E(Eh)            E(eV)
   0   1.0000     -24.340900      -662.3496
   1   1.0000     -24.340900      -662.3496
   2   1.0000     -18.967513      -516.1323
   3   1.0000      -1.244329       -33.8599
   4   1.0000      -1.136935       -30.9376
   5   1.0000      -0.867613       -23.6090
   6   1.0000      -0.579627       -15.7725
   7   1.0000      -0.525073       -14.2880
   8   1.0000      -0.484192       -13.1755
   9   1.0000      -0.401735       -10.9318
  10   1.0000      -0.399704       -10.8765
  11   1.0000      -0.388135       -10.5617
  12   1.0000      -0.281024        -7.6470
  13   0.0000      -0.151816        -4.1311
  14   0.0000      -0.123696        -3.3659
  15   0.0000      -0.000358        -0.0098
  16   0.0000       0.025800         0.7021
  17   0.0000       0.028954         0.7879

                 SPIN DOWN ORBITALS
  NO   OCC          E(Eh)            E(eV)
   0   1.0000     -24.340900      -662.3496
   1   1.0000     -24.340900      -662.3496
   2   1.0000     -18.967513      -516.1323
   3   1.0000      -1.244329       -33.8599
   4   1.0000      -1.136935       -30.9376
   5   1.0000      -0.867613       -23.6090
   6   1.0000      -0.579627       -15.7725
   7   1.0000      -0.525073       -14.2880
   8   1.0000      -0.484192       -13.1755
   9   1.0000      -0.401735       -10.9318
  10   1.0000      -0.399704       -10.8765
  11   1.0000      -0.388135       -10.5617
  12   1.0000      -0.281024        -7.6470
  13   0.0000      -0.151816        -4.1311
  14   0.0000      -0.123696        -3.3659
  15   0.0000      -0.000358        -0.0098
  16   0.0000       0.025800         0.7021
  17   0.0000       0.028954         0.7879

MULLIKEN ATOMIC CHARGES AND SPIN POPULATIONS
--------------------------------------------
   0 O :    0.176246   -0.000000
   1 F :   -0.088121    0.000000
   2 F :   -0.088125    0.000000
Sum of atomic charges         :   -0.0000000

LOEWDIN ATOMIC CHARGES AND SPIN POPULATIONS
-------------------------------------------
   0 O :    0.092945   -0.000000
   1 F :   -0.046473   -0.000000
   2 F :   -0.046473    0.000000

  Mayer bond orders larger than 0.1
B(  0-O ,  1-F ) :   0.9854 B(  0-O ,  2-F ) :   0.9854

FINAL SINGLE POINT ENERGY      -274.564577058112

DIPOLE MOMENT
-------------
                                X             Y             Z
Electronic contribution:     -0.00000       0.00000      -0.37885
Nuclear contribution   :      0.00000       0.00000       0.48882
                        -----------------------------------------
Total Dipole Moment    :     -0.00000       0.00000       0.10997
                        -----------------------------------------
Magnitude (a.u.)       :      0.10997
Magnitude (Debye)      :      0.27952

Rotational constants in cm-1:     1.961530     0.366469     0.308780
Rotational constants in MHz : 58805.203962 10986.452921  9256.989069

                             ****ORCA TERMINATED NORMALLY****
TOTAL RUN TIME: 0 days 2 hours 36 minutes 33 seconds 293 msec
