                         Program Version 4.1.2  - RELEASE  -
|  1> !uks pbe nori aug-pc-4 grid7 nofinalgrid verytightscf
|  2>
|  3> %maxcore 1500
|  4>
|  5> %pal nprocs 1 end
|  6>
|  7> %scf
|  8> 	maxiter 200
|  9> end
| 10> %elprop
| 11> 	dipole true
| 12> 	 polar 1
| 13> 	 maxiter 200
| 14> end
| 15>
| 16> * xyz 0 2
| 17> O 0.0000 0.0000 0.0000
| 18> F 0.0000 0.0000 1.3541
| 19> *
| 20>
| 21>                          ****END OF INPUT****

CARTESIAN COORDINATES (ANGSTROEM)
---------------------------------
  O      0.000000    0.000000    0.000000
  F      0.000000    0.000000    1.354100

 Total Charge           Charge          ....    0
 Multiplicity           Mult            ....    2
 Number of Electrons    NEL             ....   17
 Basis Dimension        Dim             ....  290

ORBITAL ENERGIES
----------------
                 SPIN UP ORBITALS
  NO   OCC          E(Eh)            E(eV)
   0   1.0000     -24.367816      -663.0820
   1   1.0000     -18.907771      -514.5066
   2   1.0000      -1.230067       -33.4718
   3   1.0000      -0.871404       -23.7121
   4   1.0000      -0.530067       -14.4239
   5   1.0000      -0.497949       -13.5499
   6   1.0000      -0.464943       -12.6517
   7   1.0000      -0.333220        -9.0674
   8   1.0000      -0.279130        -7.5955
   9   0.0000      -0.097744        -2.6598
  10   0.0000       0.001660         0.0452
  11   0.0000       0.030774         0.8374
  12   0.0000       0.032356         0.8804
  13   0.0000       0.034707         0.9444

                 SPIN DOWN ORBITALS
  NO   OCC          E(Eh)            E(eV)
   0   1.0000     -24.361987      -662.9234
   1   1.0000     -18.886901      -513.9387
   2   1.0000      -1.213340       -33.0167
   3   1.0000      -0.829411       -22.5694
   4   1.0000      -0.513523       -13.9737
   5   1.0000      -0.457516       -12.4496
   6   1.0000      -0.453628       -12.3438
   7   1.0000      -0.262540        -7.1441
   8   0.0000      -0.240832        -6.5534
   9   0.0000      -0.077754        -2.1158
  10   0.0000       0.004210         0.1146
  11   0.0000       0.032238         0.8772
  12   0.0000       0.034067         0.9270

MULLIKEN ATOMIC CHARGES AND SPIN POPULATIONS
--------------------------------------------
   0 O :   -0.015680    0.834895
   1 F :    0.015680    0.165105
Sum of atomic charges         :   -0.0000000

LOEWDIN ATOMIC CHARGES AND SPIN POPULATIONS
-------------------------------------------
   0 O :    0.135471    0.727355
   1 F :   -0.135471    0.272645

  Mayer bond orders larger than 0.1
B(  0-O ,  1-F ) :   1.1997

FINAL SINGLE POINT ENERGY      -174.806100089362

DIPOLE MOMENT
-------------
                                X             Y             Z
Electronic contribution:      0.00000       0.00000       0.66068
Nuclear contribution   :      0.00000       0.00000      -0.58442
                        -----------------------------------------
Total Dipole Moment    :      0.00000       0.00000       0.07625
                        -----------------------------------------
Magnitude (a.u.)       :      0.07625
Magnitude (Debye)      :      0.19381

Rotational constants in cm-1:     0.000000     1.058584     1.058584
Rotational constants in MHz :     0.000000 31735.564190 31735.564190

                             ****ORCA TERMINATED NORMALLY****
TOTAL RUN TIME: 0 days 0 hours 36 minutes 36 seconds 899 msec
