                         Program Version 4.1.2  - RELEASE  -
|  1> !uks pbe nori aug-pc-4 grid7 nofinalgrid verytightscf
|  2>
|  3> %maxcore 1500
|  4>
|  5> %pal nprocs 1 end
|  6>
|  7> %scf
|  8> 	maxiter 200
|  9> end
| 10> %elprop
| 11> 	dipole true
| 12> 	 polar 1
| 13> 	 maxiter 200
| 14> end
| 15>
| 16> * xyz 0 2
| 17> H 0 0 0
| 18> O 0 0 0.9697
| 19> *
| 20>
| 21>                          ****END OF INPUT****

CARTESIAN COORDINATES (ANGSTROEM)
---------------------------------
  H      0.000000    0.000000    0.000000
  O      0.000000    0.000000    0.969700

 Total Charge           Charge          ....    0
 Multiplicity           Mult            ....    2
 Number of Electrons    NEL             ....    9
 Basis Dimension        Dim             ....  233

ORBITAL ENERGIES
----------------
                 SPIN UP ORBITALS
  NO   OCC          E(Eh)            E(eV)
   0   1.0000     -18.828110      -512.3389
   1   1.0000      -0.935442       -25.4547
   2   1.0000      -0.430126       -11.7043
   3   1.0000      -0.367343        -9.9959
   4   1.0000      -0.294179        -8.0050
   5   0.0000      -0.029771        -0.8101
   6   0.0000       0.028911         0.7867
   7   0.0000       0.030651         0.8341
   8   0.0000       0.032958         0.8968
   9   0.0000       0.041390         1.1263

                 SPIN DOWN ORBITALS
  NO   OCC          E(Eh)            E(eV)
   0   1.0000     -18.804466      -511.6955
   1   1.0000      -0.877729       -23.8842
   2   1.0000      -0.407175       -11.0798
   3   1.0000      -0.271513        -7.3882
   4   0.0000      -0.237218        -6.4550
   5   0.0000      -0.024770        -0.6740
   6   0.0000       0.030057         0.8179
   7   0.0000       0.032970         0.8972
   8   0.0000       0.037954         1.0328

MULLIKEN ATOMIC CHARGES AND SPIN POPULATIONS
--------------------------------------------
   0 H :    0.202599    0.004075
   1 O :   -0.202599    0.995925
Sum of atomic charges         :   -0.0000000

LOEWDIN ATOMIC CHARGES AND SPIN POPULATIONS
-------------------------------------------
   0 H :   -0.873191    0.180082
   1 O :    0.873191    0.819918

  Mayer bond orders larger than 0.1
B(  0-H ,  1-O ) :   1.0432

FINAL SINGLE POINT ENERGY       -75.690224311963

DIPOLE MOMENT
-------------
                                X             Y             Z
Electronic contribution:     -0.00000       0.00000       0.22768
Nuclear contribution   :      0.00000       0.00000      -0.85498
                        -----------------------------------------
Total Dipole Moment    :     -0.00000       0.00000      -0.62729
                        -----------------------------------------
Magnitude (a.u.)       :      0.62729
Magnitude (Debye)      :      1.59445

Rotational constants in cm-1:     0.000000    18.905861    18.905861
Rotational constants in MHz :     0.000000 566783.441526 566783.441526

                             ****ORCA TERMINATED NORMALLY****
TOTAL RUN TIME: 0 days 0 hours 11 minutes 44 seconds 638 msec
