                         Program Version 4.1.2  - RELEASE  -
|  1> !uks pbe nori aug-pc-4 grid7 nofinalgrid verytightscf
|  2>
|  3> %maxcore 1500
|  4>
|  5> %pal nprocs 1 end
|  6>
|  7> %scf
|  8> 	maxiter 200
|  9> end
| 10> %elprop
| 11> 	dipole true
| 12> 	 polar 1
| 13> 	 maxiter 200
| 14> end
| 15>
| 16> * xyz 0 1
| 17> P 0.0000 0.0000 0.0000
| 18> P 0.0000 0.0000 1.8934
| 19> *
| 20>
| 21>                          ****END OF INPUT****

CARTESIAN COORDINATES (ANGSTROEM)
---------------------------------
  P      0.000000    0.000000    0.000000
  P      0.000000    0.000000    1.893400

 Total Charge           Charge          ....    0
 Multiplicity           Mult            ....    1
 Number of Electrons    NEL             ....   30
 Basis Dimension        Dim             ....  282

ORBITAL ENERGIES
----------------
                 SPIN UP ORBITALS
  NO   OCC          E(Eh)            E(eV)
   0   1.0000     -76.306637     -2076.4092
   1   1.0000     -76.306637     -2076.4092
   2   1.0000      -6.325597      -172.1282
   3   1.0000      -6.325156      -172.1162
   4   1.0000      -4.541716      -123.5864
   5   1.0000      -4.541716      -123.5864
   6   1.0000      -4.541522      -123.5811
   7   1.0000      -4.541522      -123.5811
   8   1.0000      -4.537582      -123.4739
   9   1.0000      -4.535400      -123.4145
  10   1.0000      -0.621440       -16.9102
  11   1.0000      -0.423937       -11.5359
  12   1.0000      -0.264767        -7.2047
  13   1.0000      -0.261977        -7.1288
  14   1.0000      -0.261977        -7.1288
  15   0.0000      -0.125966        -3.4277
  16   0.0000      -0.125966        -3.4277
  17   0.0000      -0.008657        -0.2356
  18   0.0000      -0.003933        -0.1070
  19   0.0000       0.012734         0.3465

                 SPIN DOWN ORBITALS
  NO   OCC          E(Eh)            E(eV)
   0   1.0000     -76.306637     -2076.4092
   1   1.0000     -76.306637     -2076.4092
   2   1.0000      -6.325597      -172.1282
   3   1.0000      -6.325156      -172.1162
   4   1.0000      -4.541716      -123.5864
   5   1.0000      -4.541716      -123.5864
   6   1.0000      -4.541522      -123.5811
   7   1.0000      -4.541522      -123.5811
   8   1.0000      -4.537582      -123.4739
   9   1.0000      -4.535400      -123.4145
  10   1.0000      -0.621440       -16.9102
  11   1.0000      -0.423937       -11.5359
  12   1.0000      -0.264767        -7.2047
  13   1.0000      -0.261977        -7.1288
  14   1.0000      -0.261977        -7.1288
  15   0.0000      -0.125966        -3.4277
  16   0.0000      -0.125966        -3.4277
  17   0.0000      -0.008657        -0.2356
  18   0.0000      -0.003933        -0.1070
  19   0.0000       0.012734         0.3465

MULLIKEN ATOMIC CHARGES AND SPIN POPULATIONS
--------------------------------------------
   0 P :    0.000007    0.000000
   1 P :   -0.000007   -0.000000
Sum of atomic charges         :   -0.0000000

LOEWDIN ATOMIC CHARGES AND SPIN POPULATIONS
-------------------------------------------
   0 P :    0.000000    0.000000
   1 P :   -0.000000   -0.000000

  Mayer bond orders larger than 0.1
B(  0-P ,  1-P ) :   2.8262

FINAL SINGLE POINT ENERGY      -682.424987571342

DIPOLE MOMENT
-------------
                                X             Y             Z
Electronic contribution:     -0.00000       0.00000      -0.00000
Nuclear contribution   :      0.00000       0.00000       0.00000
                        -----------------------------------------
Total Dipole Moment    :     -0.00000       0.00000      -0.00000
                        -----------------------------------------
Magnitude (a.u.)       :      0.00000
Magnitude (Debye)      :      0.00000

Rotational constants in cm-1:     0.000000     0.303630     0.303630
Rotational constants in MHz :     0.000000  9102.602123  9102.602123

                             ****ORCA TERMINATED NORMALLY****
TOTAL RUN TIME: 0 days 0 hours 54 minutes 57 seconds 521 msec
