                         Program Version 4.1.2  - RELEASE  -
|  1> !uks pbe nori aug-pc-4 grid7 nofinalgrid verytightscf
|  2>
|  3> %maxcore 1500
|  4>
|  5> %pal nprocs 4 end
|  6>
|  7> %scf
|  8> 	maxiter 200
|  9> end
| 10> %elprop
| 11> 	dipole true
| 12> 	 polar 1
| 13> 	 maxiter 200
| 14> end
| 15>
| 16> * xyz 0 1
| 17> P 0.0000000000 1.1100000000 -0.0858000000
| 18> P 0.0000000000 -1.1100000000 -0.0858000000
| 19> H -0.2026000000 1.3478000000 1.2905000000
| 20> H 1.4045000000 1.2216000000 -0.0032000000
| 21> H 0.2026000000 -1.3478000000 1.2905000000
| 22> H -1.4045000000 -1.2216000000 -0.0032000000
| 23> *
| 24>
| 25>                          ****END OF INPUT****

CARTESIAN COORDINATES (ANGSTROEM)
---------------------------------
  P      0.000000    1.110000   -0.085800
  P      0.000000   -1.110000   -0.085800
  H     -0.202600    1.347800    1.290500
  H      1.404500    1.221600   -0.003200
  H      0.202600   -1.347800    1.290500
  H     -1.404500   -1.221600   -0.003200

 Total Charge           Charge          ....    0
 Multiplicity           Mult            ....    1
 Number of Electrons    NEL             ....   34
 Basis Dimension        Dim             ....  634

ORBITAL ENERGIES
----------------
                 SPIN UP ORBITALS
  NO   OCC          E(Eh)            E(eV)
   0   1.0000     -76.287453     -2075.8871
   1   1.0000     -76.287453     -2075.8871
   2   1.0000      -6.307599      -171.6385
   3   1.0000      -6.307552      -171.6372
   4   1.0000      -4.523664      -123.0952
   5   1.0000      -4.523384      -123.0875
   6   1.0000      -4.522931      -123.0752
   7   1.0000      -4.522927      -123.0751
   8   1.0000      -4.519013      -122.9686
   9   1.0000      -4.518965      -122.9673
  10   1.0000      -0.625131       -17.0107
  11   1.0000      -0.533842       -14.5266
  12   1.0000      -0.363721        -9.8973
  13   1.0000      -0.362551        -9.8655
  14   1.0000      -0.318425        -8.6648
  15   1.0000      -0.246845        -6.7170
  16   1.0000      -0.235926        -6.4199
  17   0.0000      -0.045138        -1.2283
  18   0.0000      -0.039612        -1.0779
  19   0.0000      -0.028967        -0.7882
  20   0.0000      -0.004155        -0.1131
  21   0.0000       0.009838         0.2677

                 SPIN DOWN ORBITALS
  NO   OCC          E(Eh)            E(eV)
   0   1.0000     -76.287453     -2075.8871
   1   1.0000     -76.287453     -2075.8871
   2   1.0000      -6.307599      -171.6385
   3   1.0000      -6.307552      -171.6372
   4   1.0000      -4.523664      -123.0952
   5   1.0000      -4.523384      -123.0875
   6   1.0000      -4.522931      -123.0752
   7   1.0000      -4.522927      -123.0751
   8   1.0000      -4.519013      -122.9686
   9   1.0000      -4.518965      -122.9673
  10   1.0000      -0.625131       -17.0107
  11   1.0000      -0.533842       -14.5266
  12   1.0000      -0.363721        -9.8973
  13   1.0000      -0.362551        -9.8655
  14   1.0000      -0.318425        -8.6648
  15   1.0000      -0.246845        -6.7170
  16   1.0000      -0.235926        -6.4199
  17   0.0000      -0.045138        -1.2283
  18   0.0000      -0.039612        -1.0779
  19   0.0000      -0.028967        -0.7882
  20   0.0000      -0.004155        -0.1131
  21   0.0000       0.009838         0.2677

MULLIKEN ATOMIC CHARGES AND SPIN POPULATIONS
--------------------------------------------
   0 P :   -0.360517   -0.000000
   1 P :   -0.360484   -0.000000
   2 H :    0.149386    0.000000
   3 H :    0.211053    0.000000
   4 H :    0.149393   -0.000000
   5 H :    0.211169   -0.000000
Sum of atomic charges         :    0.0000000

LOEWDIN ATOMIC CHARGES AND SPIN POPULATIONS
-------------------------------------------
   0 P :    1.559138   -0.000000
   1 P :    1.559138    0.000000
   2 H :   -0.773206    0.000000
   3 H :   -0.785933    0.000000
   4 H :   -0.773206   -0.000000
   5 H :   -0.785932    0.000000

  Mayer bond orders larger than 0.1
B(  0-P ,  1-P ) :   1.4827 B(  0-P ,  2-H ) :   0.8833 B(  0-P ,  3-H ) :   0.8457
B(  0-P ,  5-H ) :  -0.1798 B(  1-P ,  3-H ) :  -0.1797 B(  1-P ,  4-H ) :   0.8833
B(  1-P ,  5-H ) :   0.8455

FINAL SINGLE POINT ENERGY      -684.821078159830

DIPOLE MOMENT
-------------
                                X             Y             Z
Electronic contribution:     -0.00000       0.00000      -2.26909
Nuclear contribution   :      0.00000       0.00000       2.64979
                        -----------------------------------------
Total Dipole Moment    :     -0.00000       0.00000       0.38070
                        -----------------------------------------
Magnitude (a.u.)       :      0.38070
Magnitude (Debye)      :      0.96766

Rotational constants in cm-1:     2.202492     0.194201     0.193641
Rotational constants in MHz : 66029.037690  5821.996050  5805.198286

                             ****ORCA TERMINATED NORMALLY****
TOTAL RUN TIME: 0 days 2 hours 50 minutes 44 seconds 870 msec
