                         Program Version 4.1.2  - RELEASE  -
|  1> !uks pbe nori aug-pc-4 grid7 nofinalgrid verytightscf
|  2>
|  3> %maxcore 1500
|  4>
|  5> %pal nprocs 1 end
|  6>
|  7> %scf
|  8> 	maxiter 200
|  9> end
| 10> %elprop
| 11> 	dipole true
| 12> 	 polar 1
| 13> 	 maxiter 200
| 14> end
| 15>
| 16> * xyz 0 4
| 17> P 0.0 0.0 0.0
| 18> *
| 19>
| 20>                          ****END OF INPUT****

CARTESIAN COORDINATES (ANGSTROEM)
---------------------------------
  P      0.000000    0.000000    0.000000

 Total Charge           Charge          ....    0
 Multiplicity           Mult            ....    4
 Number of Electrons    NEL             ....   15
 Basis Dimension        Dim             ....  141

ORBITAL ENERGIES
----------------
                 SPIN UP ORBITALS
  NO   OCC          E(Eh)            E(eV)
   0   1.0000     -76.332815     -2077.1215
   1   1.0000      -6.345962      -172.6824
   2   1.0000      -4.563026      -124.1662
   3   1.0000      -4.563026      -124.1662
   4   1.0000      -4.563026      -124.1662
   5   1.0000      -0.541261       -14.7285
   6   1.0000      -0.231271        -6.2932
   7   1.0000      -0.231271        -6.2932
   8   1.0000      -0.231271        -6.2932
   9   0.0000      -0.013790        -0.3752
  10   0.0000       0.013347         0.3632
  11   0.0000       0.013347         0.3632
  12   0.0000       0.013347         0.3632
  13   0.0000       0.058608         1.5948

                 SPIN DOWN ORBITALS
  NO   OCC          E(Eh)            E(eV)
   0   1.0000     -76.322236     -2076.8336
   1   1.0000      -6.334627      -172.3740
   2   1.0000      -4.547790      -123.7517
   3   1.0000      -4.547790      -123.7517
   4   1.0000      -4.547790      -123.7517
   5   1.0000      -0.441277       -12.0078
   6   0.0000      -0.137366        -3.7379
   7   0.0000      -0.137366        -3.7379
   8   0.0000      -0.137366        -3.7379
   9   0.0000       0.021562         0.5867
  10   0.0000       0.030516         0.8304

MULLIKEN ATOMIC CHARGES AND SPIN POPULATIONS
--------------------------------------------
   0 P :   -0.000000    3.000000
Sum of atomic charges         :   -0.0000000

LOEWDIN ATOMIC CHARGES AND SPIN POPULATIONS
-------------------------------------------
   0 P :   -0.000000    3.000000

FINAL SINGLE POINT ENERGY      -341.115431876784

DIPOLE MOMENT
-------------
                                X             Y             Z
Electronic contribution:      0.00000       0.00000       0.00000
Nuclear contribution   :      0.00000       0.00000       0.00000
                        -----------------------------------------
Total Dipole Moment    :      0.00000       0.00000       0.00000
                        -----------------------------------------
Magnitude (a.u.)       :      0.00000
Magnitude (Debye)      :      0.00000

Rotational constants in cm-1:     0.000000     0.000000     0.000000
Rotational constants in MHz :     0.000000     0.000000     0.000000

                             ****ORCA TERMINATED NORMALLY****
TOTAL RUN TIME: 0 days 0 hours 1 minutes 23 seconds 119 msec
