                         Program Version 4.1.2  - RELEASE  -
|  1> !uks pbe nori aug-pc-4 grid7 nofinalgrid verytightscf
|  2>
|  3> %maxcore 1500
|  4>
|  5> %pal nprocs 1 end
|  6>
|  7> %scf
|  8> 	maxiter 200
|  9> end
| 10> %elprop
| 11> 	dipole true
| 12> 	 polar 1
| 13> 	 maxiter 200
| 14> end
| 15>
| 16> * xyz 0 2
| 17> P 0.0000 0.0000 0.0000
| 18> H 0.0000 1.0229 0.9964
| 19> H 0.0000 -1.0229 0.9964
| 20> *
| 21>
| 22>                          ****END OF INPUT****

CARTESIAN COORDINATES (ANGSTROEM)
---------------------------------
  P      0.000000    0.000000    0.000000
  H      0.000000    1.022900    0.996400
  H      0.000000   -1.022900    0.996400

 Total Charge           Charge          ....    0
 Multiplicity           Mult            ....    2
 Number of Electrons    NEL             ....   17
 Basis Dimension        Dim             ....  317

ORBITAL ENERGIES
----------------
                 SPIN UP ORBITALS
  NO   OCC          E(Eh)            E(eV)
   0   1.0000     -76.299644     -2076.2189
   1   1.0000      -6.317944      -171.9200
   2   1.0000      -4.538025      -123.4859
   3   1.0000      -4.532154      -123.3262
   4   1.0000      -4.528948      -123.2390
   5   1.0000      -0.578584       -15.7441
   6   1.0000      -0.349320        -9.5055
   7   1.0000      -0.278758        -7.5854
   8   1.0000      -0.222110        -6.0439
   9   0.0000      -0.025752        -0.7008
  10   0.0000      -0.017442        -0.4746
  11   0.0000       0.012698         0.3455
  12   0.0000       0.014234         0.3873
  13   0.0000       0.015235         0.4146

                 SPIN DOWN ORBITALS
  NO   OCC          E(Eh)            E(eV)
   0   1.0000     -76.296094     -2076.1223
   1   1.0000      -6.314006      -171.8128
   2   1.0000      -4.529742      -123.2605
   3   1.0000      -4.527048      -123.1872
   4   1.0000      -4.526701      -123.1778
   5   1.0000      -0.553271       -15.0553
   6   1.0000      -0.342870        -9.3300
   7   1.0000      -0.266167        -7.2428
   8   0.0000      -0.154181        -4.1955
   9   0.0000      -0.018338        -0.4990
  10   0.0000      -0.012388        -0.3371
  11   0.0000       0.015399         0.4190
  12   0.0000       0.017481         0.4757

MULLIKEN ATOMIC CHARGES AND SPIN POPULATIONS
--------------------------------------------
   0 P :   -0.007126    1.093100
   1 H :    0.003562   -0.046554
   2 H :    0.003563   -0.046546
Sum of atomic charges         :    0.0000000

LOEWDIN ATOMIC CHARGES AND SPIN POPULATIONS
-------------------------------------------
   0 P :    1.620829    0.619268
   1 H :   -0.810414    0.190366
   2 H :   -0.810414    0.190366

  Mayer bond orders larger than 0.1
B(  0-P ,  1-H ) :   0.9856 B(  0-P ,  2-H ) :   0.9856

FINAL SINGLE POINT ENERGY      -342.361931341792

DIPOLE MOMENT
-------------
                                X             Y             Z
Electronic contribution:      0.00000      -0.00000      -1.59897
Nuclear contribution   :      0.00000       0.00000       1.80975
                        -----------------------------------------
Total Dipole Moment    :      0.00000      -0.00000       0.21079
                        -----------------------------------------
Magnitude (a.u.)       :      0.21079
Magnitude (Debye)      :      0.53578

Rotational constants in cm-1:     8.970651     7.991716     4.226467
Rotational constants in MHz : 268933.348911 239585.603970 126706.307526

                             ****ORCA TERMINATED NORMALLY****
TOTAL RUN TIME: 0 days 0 hours 48 minutes 2 seconds 351 msec
