                         Program Version 4.1.2  - RELEASE  -
|  1> !uks pbe nori aug-pc-4 grid7 nofinalgrid verytightscf
|  2>
|  3> %maxcore 1500
|  4>
|  5> %pal nprocs 4 end
|  6>
|  7> %scf
|  8> 	maxiter 200
|  9> end
| 10> %elprop
| 11> 	dipole true
| 12> 	 polar 1
| 13> 	 maxiter 200
| 14> end
| 15>
| 16> * xyz 0 1
| 17> P 0.0000000000 0.0000000000 0.0000000000
| 18> H 0.0000000000 0.0000000000 1.4141500000
| 19> H 1.4127052064 0.0000000000 -0.0639079205
| 20> O -0.2628101077 1.6275926322 -0.2511898901
| 21> H -0.9542069755 1.7138775927 -0.9120164663
| 22> *
| 23>
| 24>                          ****END OF INPUT****

CARTESIAN COORDINATES (ANGSTROEM)
---------------------------------
  P      0.000000    0.000000    0.000000
  H      0.000000    0.000000    1.414150
  H      1.412705    0.000000   -0.063908
  O     -0.262810    1.627593   -0.251190
  H     -0.954207    1.713878   -0.912016

 Total Charge           Charge          ....    0
 Multiplicity           Mult            ....    1
 Number of Electrons    NEL             ....   26
 Basis Dimension        Dim             ....  550

ORBITAL ENERGIES
----------------
                 SPIN UP ORBITALS
  NO   OCC          E(Eh)            E(eV)
   0   1.0000     -76.307723     -2076.4387
   1   1.0000     -18.775346      -510.9031
   2   1.0000      -6.323757      -172.0782
   3   1.0000      -4.541829      -123.5894
   4   1.0000      -4.538537      -123.4999
   5   1.0000      -4.534448      -123.3886
   6   1.0000      -0.945812       -25.7369
   7   1.0000      -0.586184       -15.9509
   8   1.0000      -0.442360       -12.0372
   9   1.0000      -0.371997       -10.1226
  10   1.0000      -0.371818       -10.1177
  11   1.0000      -0.273211        -7.4345
  12   1.0000      -0.226609        -6.1664
  13   0.0000      -0.056972        -1.5503
  14   0.0000      -0.015755        -0.4287
  15   0.0000      -0.003703        -0.1008
  16   0.0000       0.003768         0.1025
  17   0.0000       0.012988         0.3534

                 SPIN DOWN ORBITALS
  NO   OCC          E(Eh)            E(eV)
   0   1.0000     -76.307723     -2076.4387
   1   1.0000     -18.775346      -510.9031
   2   1.0000      -6.323757      -172.0782
   3   1.0000      -4.541829      -123.5894
   4   1.0000      -4.538537      -123.4999
   5   1.0000      -4.534448      -123.3886
   6   1.0000      -0.945812       -25.7369
   7   1.0000      -0.586184       -15.9509
   8   1.0000      -0.442360       -12.0372
   9   1.0000      -0.371997       -10.1226
  10   1.0000      -0.371818       -10.1177
  11   1.0000      -0.273211        -7.4345
  12   1.0000      -0.226609        -6.1664
  13   0.0000      -0.056972        -1.5503
  14   0.0000      -0.015755        -0.4287
  15   0.0000      -0.003703        -0.1008
  16   0.0000       0.003768         0.1025
  17   0.0000       0.012988         0.3534

MULLIKEN ATOMIC CHARGES AND SPIN POPULATIONS
--------------------------------------------
   0 P :    0.074495   -0.000000
   1 H :   -0.034304   -0.000000
   2 H :   -0.034154    0.000000
   3 O :   -0.008519    0.000000
   4 H :    0.002482   -0.000000
Sum of atomic charges         :   -0.0000000

LOEWDIN ATOMIC CHARGES AND SPIN POPULATIONS
-------------------------------------------
   0 P :    1.855746   -0.000000
   1 H :   -0.598261   -0.000000
   2 H :   -0.598261    0.000000
   3 O :    0.423378    0.000000
   4 H :   -1.082603   -0.000000

  Mayer bond orders larger than 0.1
B(  0-P ,  1-H ) :   0.9984 B(  0-P ,  2-H ) :   0.9980 B(  0-P ,  3-O ) :   0.9427
B(  0-P ,  4-H ) :   0.2035 B(  3-O ,  4-H ) :   1.0403

FINAL SINGLE POINT ENERGY      -418.202370176488

DIPOLE MOMENT
-------------
                                X             Y             Z
Electronic contribution:     -0.75782      -0.58807      -0.72431
Nuclear contribution   :      0.57117       0.55687       0.54592
                        -----------------------------------------
Total Dipole Moment    :     -0.18664      -0.03120      -0.17839
                        -----------------------------------------
Magnitude (a.u.)       :      0.26006
Magnitude (Debye)      :      0.66103

Rotational constants in cm-1:     3.740760     0.483188     0.479169
Rotational constants in MHz : 112145.176126 14485.620170 14365.126502

                             ****ORCA TERMINATED NORMALLY****
TOTAL RUN TIME: 0 days 1 hours 35 minutes 32 seconds 741 msec
