                         Program Version 4.1.2  - RELEASE  -
|  1> !uks pbe nori aug-pc-4 grid7 nofinalgrid verytightscf
|  2>
|  3> %maxcore 1500
|  4>
|  5> %pal nprocs 4 end
|  6>
|  7> %scf
|  8> 	maxiter 200
|  9> end
| 10> %elprop
| 11> 	dipole true
| 12> 	 polar 1
| 13> 	 maxiter 200
| 14> end
| 15>
| 16> * xyz 0 1
| 17> P 0.0000000000 0.0000000000 -0.3836153961
| 18> H -1.2521120981 0.0000000000 -1.0264054293
| 19> H 0.6260878053 -1.0843997178 -1.0264202208
| 20> H 0.6260878053 1.0843997178 -1.0264202208
| 21> O 0.0000000000 0.0000000008 1.1041846038
| 22> *
| 23>
| 24>                          ****END OF INPUT****

CARTESIAN COORDINATES (ANGSTROEM)
---------------------------------
  P      0.000000    0.000000   -0.383615
  H     -1.252112    0.000000   -1.026405
  H      0.626088   -1.084400   -1.026420
  H      0.626088    1.084400   -1.026420
  O      0.000000    0.000000    1.104185

 Total Charge           Charge          ....    0
 Multiplicity           Mult            ....    1
 Number of Electrons    NEL             ....   26
 Basis Dimension        Dim             ....  550

ORBITAL ENERGIES
----------------
                 SPIN UP ORBITALS
  NO   OCC          E(Eh)            E(eV)
   0   1.0000     -76.349587     -2077.5779
   1   1.0000     -18.718868      -509.3663
   2   1.0000      -6.363786      -173.1674
   3   1.0000      -4.579197      -124.6063
   4   1.0000      -4.579197      -124.6063
   5   1.0000      -4.577346      -124.5559
   6   1.0000      -0.890585       -24.2341
   7   1.0000      -0.595096       -16.1934
   8   1.0000      -0.403334       -10.9753
   9   1.0000      -0.403328       -10.9751
  10   1.0000      -0.347569        -9.4578
  11   1.0000      -0.254721        -6.9313
  12   1.0000      -0.254721        -6.9313
  13   0.0000      -0.047717        -1.2984
  14   0.0000      -0.033487        -0.9112
  15   0.0000       0.000045         0.0012
  16   0.0000       0.000049         0.0013
  17   0.0000       0.008440         0.2297

                 SPIN DOWN ORBITALS
  NO   OCC          E(Eh)            E(eV)
   0   1.0000     -76.349587     -2077.5779
   1   1.0000     -18.718868      -509.3663
   2   1.0000      -6.363786      -173.1674
   3   1.0000      -4.579197      -124.6063
   4   1.0000      -4.579197      -124.6063
   5   1.0000      -4.577346      -124.5559
   6   1.0000      -0.890585       -24.2341
   7   1.0000      -0.595096       -16.1934
   8   1.0000      -0.403334       -10.9753
   9   1.0000      -0.403328       -10.9751
  10   1.0000      -0.347569        -9.4578
  11   1.0000      -0.254721        -6.9313
  12   1.0000      -0.254721        -6.9313
  13   0.0000      -0.047717        -1.2984
  14   0.0000      -0.033487        -0.9112
  15   0.0000       0.000045         0.0012
  16   0.0000       0.000049         0.0013
  17   0.0000       0.008440         0.2297

MULLIKEN ATOMIC CHARGES AND SPIN POPULATIONS
--------------------------------------------
   0 P :    0.390555   -0.000000
   1 H :   -0.037959    0.000000
   2 H :   -0.038207    0.000000
   3 H :   -0.038157   -0.000000
   4 O :   -0.276231    0.000000
Sum of atomic charges         :   -0.0000000

LOEWDIN ATOMIC CHARGES AND SPIN POPULATIONS
-------------------------------------------
   0 P :    1.679359   -0.000000
   1 H :   -0.526663    0.000000
   2 H :   -0.526618    0.000000
   3 H :   -0.526618    0.000000
   4 O :   -0.099461    0.000000

  Mayer bond orders larger than 0.1
B(  0-P ,  1-H ) :   0.9665 B(  0-P ,  2-H ) :   0.9668 B(  0-P ,  3-H ) :   0.9667
B(  0-P ,  4-O ) :   1.8754

FINAL SINGLE POINT ENERGY      -418.203263735625

DIPOLE MOMENT
-------------
                                X             Y             Z
Electronic contribution:     -0.00008       0.00000       1.26596
Nuclear contribution   :      0.00006      -0.00000      -2.63355
                        -----------------------------------------
Total Dipole Moment    :     -0.00002       0.00000      -1.36759
                        -----------------------------------------
Magnitude (a.u.)       :      1.36759
Magnitude (Debye)      :      3.47613

Rotational constants in cm-1:     3.555542     0.571885     0.571884
Rotational constants in MHz : 106592.463124 17144.691861 17144.639736

                             ****ORCA TERMINATED NORMALLY****
TOTAL RUN TIME: 0 days 1 hours 56 minutes 55 seconds 213 msec
