                         Program Version 4.1.2  - RELEASE  -
|  1> !uks pbe nori aug-pc-4 grid7 nofinalgrid verytightscf
|  2>
|  3> %maxcore 1500
|  4>
|  5> %pal nprocs 1 end
|  6>
|  7> %scf
|  8> 	maxiter 200
|  9> end
| 10> %elprop
| 11> 	dipole true
| 12> 	 polar 1
| 13> 	 maxiter 200
| 14> end
| 15>
| 16> * xyz 0 3
| 17> H 0.0000 0.0000 0.0000
| 18> P 0.0000 0.0000 1.4223
| 19> *
| 20>
| 21>                          ****END OF INPUT****

CARTESIAN COORDINATES (ANGSTROEM)
---------------------------------
  H      0.000000    0.000000    0.000000
  P      0.000000    0.000000    1.422300

 Total Charge           Charge          ....    0
 Multiplicity           Mult            ....    3
 Number of Electrons    NEL             ....   16
 Basis Dimension        Dim             ....  229

ORBITAL ENERGIES
----------------
                 SPIN UP ORBITALS
  NO   OCC          E(Eh)            E(eV)
   0   1.0000     -76.316463     -2076.6765
   1   1.0000      -6.332352      -172.3120
   2   1.0000      -4.550855      -123.8351
   3   1.0000      -4.550855      -123.8351
   4   1.0000      -4.543446      -123.6334
   5   1.0000      -0.565787       -15.3958
   6   1.0000      -0.313880        -8.5411
   7   1.0000      -0.227164        -6.1814
   8   1.0000      -0.227164        -6.1814
   9   0.0000      -0.024946        -0.6788
  10   0.0000       0.005072         0.1380
  11   0.0000       0.013836         0.3765
  12   0.0000       0.013836         0.3765
  13   0.0000       0.014143         0.3849

                 SPIN DOWN ORBITALS
  NO   OCC          E(Eh)            E(eV)
   0   1.0000     -76.309410     -2076.4846
   1   1.0000      -6.324632      -172.1020
   2   1.0000      -4.538990      -123.5122
   3   1.0000      -4.537664      -123.4761
   4   1.0000      -4.537664      -123.4761
   5   1.0000      -0.511229       -13.9113
   6   1.0000      -0.291107        -7.9214
   7   0.0000      -0.145865        -3.9692
   8   0.0000      -0.145865        -3.9692
   9   0.0000      -0.010001        -0.2722
  10   0.0000       0.018819         0.5121
  11   0.0000       0.026763         0.7283

MULLIKEN ATOMIC CHARGES AND SPIN POPULATIONS
--------------------------------------------
   0 H :    0.009576   -0.070639
   1 P :   -0.009576    2.070639
Sum of atomic charges         :   -0.0000000

LOEWDIN ATOMIC CHARGES AND SPIN POPULATIONS
-------------------------------------------
   0 H :   -1.092593    0.492697
   1 P :    1.092593    1.507303

  Mayer bond orders larger than 0.1
B(  0-H ,  1-P ) :   1.0353

FINAL SINGLE POINT ENERGY      -341.734771883053

DIPOLE MOMENT
-------------
                                X             Y             Z
Electronic contribution:     -0.00000      -0.00000       1.16702
Nuclear contribution   :      0.00000       0.00000      -1.33237
                        -----------------------------------------
Total Dipole Moment    :     -0.00000      -0.00000      -0.16534
                        -----------------------------------------
Magnitude (a.u.)       :      0.16534
Magnitude (Debye)      :      0.42026

Rotational constants in cm-1:     0.000000     8.536155     8.536155
Rotational constants in MHz :     0.000000 255907.477930 255907.477930

                             ****ORCA TERMINATED NORMALLY****
TOTAL RUN TIME: 0 days 0 hours 18 minutes 56 seconds 488 msec
