                         Program Version 4.1.2  - RELEASE  -
|  1> !uks pbe nori aug-pc-4 grid7 nofinalgrid verytightscf
|  2>
|  3> %maxcore 1500
|  4>
|  5> %pal nprocs 1 end
|  6>
|  7> %scf
|  8> 	maxiter 200
|  9> end
| 10> %elprop
| 11> 	dipole true
| 12> 	 polar 1
| 13> 	 maxiter 200
| 14> end
| 15>
| 16> * xyz 0 2
| 17> S 0.0000 0.0000 0.0000
| 18> P 0.0000 0.0000 1.9000
| 19> *
| 20>
| 21>                          ****END OF INPUT****

CARTESIAN COORDINATES (ANGSTROEM)
---------------------------------
  S      0.000000    0.000000    0.000000
  P      0.000000    0.000000    1.900000

 Total Charge           Charge          ....    0
 Multiplicity           Mult            ....    2
 Number of Electrons    NEL             ....   31
 Basis Dimension        Dim             ....  282

ORBITAL ENERGIES
----------------
                 SPIN UP ORBITALS
  NO   OCC          E(Eh)            E(eV)
   0   1.0000     -88.062231     -2396.2951
   1   1.0000     -76.334970     -2077.1801
   2   1.0000      -7.700697      -209.5466
   3   1.0000      -6.350216      -172.7982
   4   1.0000      -5.719876      -155.6457
   5   1.0000      -5.717449      -155.5797
   6   1.0000      -5.715823      -155.5355
   7   1.0000      -4.569344      -124.3382
   8   1.0000      -4.564593      -124.2089
   9   1.0000      -4.562604      -124.1548
  10   1.0000      -0.706878       -19.2351
  11   1.0000      -0.490793       -13.3552
  12   1.0000      -0.314603        -8.5608
  13   1.0000      -0.304540        -8.2870
  14   1.0000      -0.302642        -8.2353
  15   1.0000      -0.169974        -4.6252
  16   0.0000      -0.165491        -4.5032
  17   0.0000      -0.021870        -0.5951
  18   0.0000      -0.013338        -0.3629
  19   0.0000       0.010214         0.2779
  20   0.0000       0.011713         0.3187

                 SPIN DOWN ORBITALS
  NO   OCC          E(Eh)            E(eV)
   0   1.0000     -88.060794     -2396.2560
   1   1.0000     -76.332295     -2077.1073
   2   1.0000      -7.699260      -209.5075
   3   1.0000      -6.347387      -172.7212
   4   1.0000      -5.719250      -155.6287
   5   1.0000      -5.716635      -155.5576
   6   1.0000      -5.711331      -155.4132
   7   1.0000      -4.567540      -124.2891
   8   1.0000      -4.561011      -124.1114
   9   1.0000      -4.556554      -123.9901
  10   1.0000      -0.699233       -19.0271
  11   1.0000      -0.471140       -12.8204
  12   1.0000      -0.304039        -8.2733
  13   1.0000      -0.300675        -8.1818
  14   1.0000      -0.279392        -7.6026
  15   0.0000      -0.156753        -4.2655
  16   0.0000      -0.127922        -3.4809
  17   0.0000      -0.015377        -0.4184
  18   0.0000      -0.006874        -0.1871
  19   0.0000       0.013920         0.3788

MULLIKEN ATOMIC CHARGES AND SPIN POPULATIONS
--------------------------------------------
   0 S :   -0.027328    0.365788
   1 P :    0.027328    0.634212
Sum of atomic charges         :   -0.0000000

LOEWDIN ATOMIC CHARGES AND SPIN POPULATIONS
-------------------------------------------
   0 S :   -0.021095    0.408045
   1 P :    0.021095    0.591955

  Mayer bond orders larger than 0.1
B(  0-S ,  1-P ) :   2.4000

FINAL SINGLE POINT ENERGY      -739.248089441023

DIPOLE MOMENT
-------------
                                X             Y             Z
Electronic contribution:      0.00000      -0.00000       1.03075
Nuclear contribution   :      0.00000       0.00000      -0.83642
                        -----------------------------------------
Total Dipole Moment    :      0.00000      -0.00000       0.19433
                        -----------------------------------------
Magnitude (a.u.)       :      0.19433
Magnitude (Debye)      :      0.49395

Rotational constants in cm-1:     0.000000     0.296417     0.296417
Rotational constants in MHz :     0.000000  8886.371340  8886.371340

                             ****ORCA TERMINATED NORMALLY****
TOTAL RUN TIME: 0 days 1 hours 19 minutes 59 seconds 577 msec
