                         Program Version 4.1.2  - RELEASE  -
|  1> !uks pbe nori aug-pc-4 grid7 nofinalgrid verytightscf
|  2>
|  3> %maxcore 1500
|  4>
|  5> %pal nprocs 1 end
|  6>
|  7> %scf
|  8> 	maxiter 200
|  9> end
| 10> %elprop
| 11> 	dipole true
| 12> 	 polar 1
| 13> 	 maxiter 200
| 14> end
| 15>
| 16> * xyz 0 3
| 17> S 0.0000 0.0000 0.0000
| 18> S 0.0000 0.0000 1.8892
| 19> *
| 20>
| 21>                          ****END OF INPUT****

CARTESIAN COORDINATES (ANGSTROEM)
---------------------------------
  S      0.000000    0.000000    0.000000
  S      0.000000    0.000000    1.889200

 Total Charge           Charge          ....    0
 Multiplicity           Mult            ....    3
 Number of Electrons    NEL             ....   32
 Basis Dimension        Dim             ....  282

ORBITAL ENERGIES
----------------
                 SPIN UP ORBITALS
  NO   OCC          E(Eh)            E(eV)
   0   1.0000     -88.085808     -2396.9367
   1   1.0000     -88.085808     -2396.9367
   2   1.0000      -7.721992      -210.1261
   3   1.0000      -7.721830      -210.1217
   4   1.0000      -5.740562      -156.2086
   5   1.0000      -5.739750      -156.1866
   6   1.0000      -5.739645      -156.1837
   7   1.0000      -5.739645      -156.1837
   8   1.0000      -5.739580      -156.1819
   9   1.0000      -5.739580      -156.1819
  10   1.0000      -0.771037       -20.9810
  11   1.0000      -0.572817       -15.5871
  12   1.0000      -0.366242        -9.9659
  13   1.0000      -0.340185        -9.2569
  14   1.0000      -0.340185        -9.2569
  15   1.0000      -0.213769        -5.8169
  16   1.0000      -0.213769        -5.8169
  17   0.0000      -0.047923        -1.3041
  18   0.0000      -0.011146        -0.3033
  19   0.0000       0.012900         0.3510
  20   0.0000       0.012900         0.3510
  21   0.0000       0.018672         0.5081

                 SPIN DOWN ORBITALS
  NO   OCC          E(Eh)            E(eV)
   0   1.0000     -88.080816     -2396.8009
   1   1.0000     -88.080816     -2396.8009
   2   1.0000      -7.717006      -209.9904
   3   1.0000      -7.716843      -209.9860
   4   1.0000      -5.737627      -156.1288
   5   1.0000      -5.736811      -156.1066
   6   1.0000      -5.730815      -155.9434
   7   1.0000      -5.730815      -155.9434
   8   1.0000      -5.730750      -155.9416
   9   1.0000      -5.730750      -155.9416
  10   1.0000      -0.750253       -20.4154
  11   1.0000      -0.531586       -14.4652
  12   1.0000      -0.345625        -9.4049
  13   1.0000      -0.306471        -8.3395
  14   1.0000      -0.306471        -8.3395
  15   0.0000      -0.165813        -4.5120
  16   0.0000      -0.165813        -4.5120
  17   0.0000      -0.032046        -0.8720
  18   0.0000      -0.001928        -0.0525
  19   0.0000       0.018850         0.5129

MULLIKEN ATOMIC CHARGES AND SPIN POPULATIONS
--------------------------------------------
   0 S :   -0.000007    1.000001
   1 S :    0.000007    0.999999
Sum of atomic charges         :   -0.0000000

LOEWDIN ATOMIC CHARGES AND SPIN POPULATIONS
-------------------------------------------
   0 S :   -0.000000    1.000000
   1 S :    0.000000    1.000000

  Mayer bond orders larger than 0.1
B(  0-S ,  1-S ) :   2.1123

FINAL SINGLE POINT ENERGY      -796.089048536952

DIPOLE MOMENT
-------------
                                X             Y             Z
Electronic contribution:     -0.00000       0.00000      -0.00000
Nuclear contribution   :      0.00000       0.00000       0.00000
                        -----------------------------------------
Total Dipole Moment    :     -0.00000       0.00000      -0.00000
                        -----------------------------------------
Magnitude (a.u.)       :      0.00000
Magnitude (Debye)      :      0.00000

Rotational constants in cm-1:     0.000000     0.294651     0.294651
Rotational constants in MHz :     0.000000  8833.406323  8833.406323

                             ****ORCA TERMINATED NORMALLY****
TOTAL RUN TIME: 0 days 0 hours 55 minutes 48 seconds 332 msec
