                         Program Version 4.1.2  - RELEASE  -
|  1> !uks pbe nori aug-pc-4 grid7 nofinalgrid verytightscf
|  2>
|  3> %maxcore 1500
|  4>
|  5> %pal nprocs 4 end
|  6>
|  7> %scf
|  8> 	maxiter 200
|  9> end
| 10> %elprop
| 11> 	dipole true
| 12> 	 polar 1
| 13> 	 maxiter 200
| 14> end
| 15>
| 16> * xyz 0 1
| 17> S 0.0000 1.0282 -0.0552
| 18> S 0.0000 -1.0282 -0.0552
| 19> H 0.9425 1.2122 0.8824
| 20> H -0.9425 -1.2122 0.8824
| 21> *
| 22>
| 23>                          ****END OF INPUT****

CARTESIAN COORDINATES (ANGSTROEM)
---------------------------------
  S      0.000000    1.028200   -0.055200
  S      0.000000   -1.028200   -0.055200
  H      0.942500    1.212200    0.882400
  H     -0.942500   -1.212200    0.882400

 Total Charge           Charge          ....    0
 Multiplicity           Mult            ....    1
 Number of Electrons    NEL             ....   34
 Basis Dimension        Dim             ....  458

ORBITAL ENERGIES
----------------
                 SPIN UP ORBITALS
  NO   OCC          E(Eh)            E(eV)
   0   1.0000     -88.063233     -2396.3224
   1   1.0000     -88.063233     -2396.3224
   2   1.0000      -7.700755      -209.5482
   3   1.0000      -7.700709      -209.5469
   4   1.0000      -5.722974      -155.7300
   5   1.0000      -5.722743      -155.7237
   6   1.0000      -5.718263      -155.6019
   7   1.0000      -5.718224      -155.6008
   8   1.0000      -5.711183      -155.4092
   9   1.0000      -5.711183      -155.4092
  10   1.0000      -0.741811       -20.1857
  11   1.0000      -0.613137       -16.6843
  12   1.0000      -0.417382       -11.3575
  13   1.0000      -0.371213       -10.1012
  14   1.0000      -0.328208        -8.9310
  15   1.0000      -0.234479        -6.3805
  16   1.0000      -0.233555        -6.3554
  17   0.0000      -0.078800        -2.1443
  18   0.0000      -0.039934        -1.0867
  19   0.0000      -0.021706        -0.5907
  20   0.0000       0.011630         0.3165
  21   0.0000       0.015090         0.4106

                 SPIN DOWN ORBITALS
  NO   OCC          E(Eh)            E(eV)
   0   1.0000     -88.063233     -2396.3224
   1   1.0000     -88.063233     -2396.3224
   2   1.0000      -7.700755      -209.5482
   3   1.0000      -7.700709      -209.5469
   4   1.0000      -5.722974      -155.7300
   5   1.0000      -5.722743      -155.7237
   6   1.0000      -5.718263      -155.6019
   7   1.0000      -5.718224      -155.6008
   8   1.0000      -5.711183      -155.4092
   9   1.0000      -5.711183      -155.4092
  10   1.0000      -0.741811       -20.1857
  11   1.0000      -0.613137       -16.6843
  12   1.0000      -0.417382       -11.3575
  13   1.0000      -0.371213       -10.1012
  14   1.0000      -0.328208        -8.9310
  15   1.0000      -0.234479        -6.3805
  16   1.0000      -0.233555        -6.3554
  17   0.0000      -0.078800        -2.1443
  18   0.0000      -0.039934        -1.0867
  19   0.0000      -0.021706        -0.5907
  20   0.0000       0.011630         0.3165
  21   0.0000       0.015090         0.4106

MULLIKEN ATOMIC CHARGES AND SPIN POPULATIONS
--------------------------------------------
   0 S :   -0.082346   -0.000000
   1 S :   -0.082329    0.000000
   2 H :    0.082326    0.000000
   3 H :    0.082348   -0.000000
Sum of atomic charges         :   -0.0000000

LOEWDIN ATOMIC CHARGES AND SPIN POPULATIONS
-------------------------------------------
   0 S :    1.152152   -0.000000
   1 S :    1.152152    0.000000
   2 H :   -1.152152    0.000000
   3 H :   -1.152152   -0.000000

  Mayer bond orders larger than 0.1
B(  0-S ,  1-S ) :   1.2010 B(  0-S ,  2-H ) :   1.0128 B(  1-S ,  3-H ) :   1.0128

FINAL SINGLE POINT ENERGY      -797.298001782231

DIPOLE MOMENT
-------------
                                X             Y             Z
Electronic contribution:     -0.00000      -0.00000      -1.27791
Nuclear contribution   :      0.00000       0.00000       1.70730
                        -----------------------------------------
Total Dipole Moment    :     -0.00000      -0.00000       0.42938
                        -----------------------------------------
Magnitude (a.u.)       :      0.42938
Magnitude (Debye)      :      1.09141

Rotational constants in cm-1:     4.911601     0.232389     0.232376
Rotational constants in MHz : 147246.083734  6966.854548  6966.446385

                             ****ORCA TERMINATED NORMALLY****
TOTAL RUN TIME: 0 days 0 hours 57 minutes 0 seconds 771 msec
