                         Program Version 4.1.2  - RELEASE  -
|  1> !uks pbe nori aug-pc-4 grid7 nofinalgrid verytightscf
|  2>
|  3> %maxcore 1500
|  4>
|  5> %pal nprocs 4 end
|  6>
|  7> %scf
|  8> 	maxiter 200
|  9> end
| 10> %elprop
| 11> 	dipole true
| 12> 	 polar 1
| 13> 	 maxiter 200
| 14> end
| 15>
| 16> * xyz 0 1
| 17> S 0.0000 0.0000 0.8544
| 18> Cl 0.0000 1.5740 -0.4021
| 19> Cl 0.0000 -1.5740 -0.4021
| 20> *
| 21>
| 22>                          ****END OF INPUT****

CARTESIAN COORDINATES (ANGSTROEM)
---------------------------------
  S      0.000000    0.000000    0.854400
  Cl     0.000000    1.574000   -0.402100
  Cl     0.000000   -1.574000   -0.402100

 Total Charge           Charge          ....    0
 Multiplicity           Mult            ....    1
 Number of Electrons    NEL             ....   50
 Basis Dimension        Dim             ....  423

ORBITAL ENERGIES
----------------
                 SPIN UP ORBITALS
  NO   OCC          E(Eh)            E(eV)
   0   1.0000    -100.689624     -2739.9040
   1   1.0000    -100.689624     -2739.9040
   2   1.0000     -88.129608     -2398.1286
   3   1.0000      -9.212373      -250.6814
   4   1.0000      -9.212373      -250.6814
   5   1.0000      -7.760232      -211.1666
   6   1.0000      -7.035902      -191.4566
   7   1.0000      -7.035902      -191.4566
   8   1.0000      -7.025653      -191.1777
   9   1.0000      -7.025653      -191.1777
  10   1.0000      -7.023742      -191.1257
  11   1.0000      -7.023742      -191.1257
  12   1.0000      -5.784293      -157.3986
  13   1.0000      -5.780844      -157.3048
  14   1.0000      -5.767474      -156.9410
  15   1.0000      -0.846770       -23.0418
  16   1.0000      -0.782122       -21.2826
  17   1.0000      -0.622362       -16.9353
  18   1.0000      -0.440744       -11.9933
  19   1.0000      -0.398489       -10.8434
  20   1.0000      -0.365232        -9.9385
  21   1.0000      -0.316415        -8.6101
  22   1.0000      -0.313294        -8.5252
  23   1.0000      -0.304646        -8.2898
  24   1.0000      -0.216674        -5.8960
  25   0.0000      -0.123781        -3.3682
  26   0.0000      -0.111426        -3.0320
  27   0.0000      -0.013100        -0.3565
  28   0.0000       0.010937         0.2976
  29   0.0000       0.011602         0.3157

                 SPIN DOWN ORBITALS
  NO   OCC          E(Eh)            E(eV)
   0   1.0000    -100.689624     -2739.9040
   1   1.0000    -100.689624     -2739.9040
   2   1.0000     -88.129608     -2398.1286
   3   1.0000      -9.212373      -250.6814
   4   1.0000      -9.212373      -250.6814
   5   1.0000      -7.760232      -211.1666
   6   1.0000      -7.035902      -191.4566
   7   1.0000      -7.035902      -191.4566
   8   1.0000      -7.025653      -191.1777
   9   1.0000      -7.025653      -191.1777
  10   1.0000      -7.023742      -191.1257
  11   1.0000      -7.023742      -191.1257
  12   1.0000      -5.784293      -157.3986
  13   1.0000      -5.780844      -157.3048
  14   1.0000      -5.767474      -156.9410
  15   1.0000      -0.846770       -23.0418
  16   1.0000      -0.782122       -21.2826
  17   1.0000      -0.622362       -16.9353
  18   1.0000      -0.440744       -11.9933
  19   1.0000      -0.398489       -10.8434
  20   1.0000      -0.365232        -9.9385
  21   1.0000      -0.316415        -8.6101
  22   1.0000      -0.313294        -8.5252
  23   1.0000      -0.304646        -8.2898
  24   1.0000      -0.216674        -5.8960
  25   0.0000      -0.123781        -3.3682
  26   0.0000      -0.111426        -3.0320
  27   0.0000      -0.013100        -0.3565
  28   0.0000       0.010937         0.2976
  29   0.0000       0.011602         0.3157

MULLIKEN ATOMIC CHARGES AND SPIN POPULATIONS
--------------------------------------------
   0 S :    0.045705   -0.000000
   1 Cl:   -0.022855    0.000000
   2 Cl:   -0.022850    0.000000
Sum of atomic charges         :    0.0000000

LOEWDIN ATOMIC CHARGES AND SPIN POPULATIONS
-------------------------------------------
   0 S :   -0.123147   -0.000000
   1 Cl:    0.061574    0.000000
   2 Cl:    0.061574   -0.000000

  Mayer bond orders larger than 0.1
B(  0-S ,  1-Cl) :   1.2218 B(  0-S ,  2-Cl) :   1.2218 B(  1-Cl,  2-Cl) :   0.1402

FINAL SINGLE POINT ENERGY     -1318.130177797359

DIPOLE MOMENT
-------------
                                X             Y             Z
Electronic contribution:      0.00000       0.00000      -0.90731
Nuclear contribution   :      0.00000       0.00000       1.02517
                        -----------------------------------------
Total Dipole Moment    :      0.00000       0.00000       0.11786
                        -----------------------------------------
Magnitude (a.u.)       :      0.11786
Magnitude (Debye)      :      0.29958

Rotational constants in cm-1:     0.483637     0.095963     0.080075
Rotational constants in MHz : 14499.063618  2876.902619  2400.579831

                             ****ORCA TERMINATED NORMALLY****
TOTAL RUN TIME: 0 days 0 hours 59 minutes 13 seconds 474 msec
