                         Program Version 4.1.2  - RELEASE  -
|  1> !uks pbe nori aug-pc-4 grid7 nofinalgrid verytightscf
|  2>
|  3> %maxcore 1500
|  4>
|  5> %pal nprocs 1 end
|  6>
|  7> %scf
|  8> 	maxiter 200
|  9> end
| 10> %elprop
| 11> 	dipole true
| 12> 	 polar 1
| 13> 	 maxiter 200
| 14> end
| 15>
| 16> * xyz 0 2
| 17> S 0.0000 0.0000 0.0000
| 18> Cl 0.0000 0.0000 1.9753
| 19> *
| 20>
| 21>                          ****END OF INPUT****

CARTESIAN COORDINATES (ANGSTROEM)
---------------------------------
  S      0.000000    0.000000    0.000000
  Cl     0.000000    0.000000    1.975300

 Total Charge           Charge          ....    0
 Multiplicity           Mult            ....    2
 Number of Electrons    NEL             ....   33
 Basis Dimension        Dim             ....  282

ORBITAL ENERGIES
----------------
                 SPIN UP ORBITALS
  NO   OCC          E(Eh)            E(eV)
   0   1.0000    -100.705210     -2740.3281
   1   1.0000     -88.094799     -2397.1814
   2   1.0000      -9.226806      -251.0741
   3   1.0000      -7.728560      -210.3048
   4   1.0000      -7.049140      -191.8169
   5   1.0000      -7.042970      -191.6490
   6   1.0000      -7.037508      -191.5003
   7   1.0000      -5.751870      -156.5163
   8   1.0000      -5.751502      -156.5063
   9   1.0000      -5.735927      -156.0825
  10   1.0000      -0.831094       -22.6152
  11   1.0000      -0.627703       -17.0807
  12   1.0000      -0.404359       -11.0032
  13   1.0000      -0.369999       -10.0682
  14   1.0000      -0.350452        -9.5363
  15   1.0000      -0.255278        -6.9465
  16   1.0000      -0.221777        -6.0349
  17   0.0000      -0.106044        -2.8856
  18   0.0000      -0.012472        -0.3394
  19   0.0000       0.014825         0.4034
  20   0.0000       0.016836         0.4581
  21   0.0000       0.017465         0.4752

                 SPIN DOWN ORBITALS
  NO   OCC          E(Eh)            E(eV)
   0   1.0000    -100.703957     -2740.2940
   1   1.0000     -88.090861     -2397.0742
   2   1.0000      -9.225611      -251.0416
   3   1.0000      -7.724549      -210.1957
   4   1.0000      -7.048545      -191.8007
   5   1.0000      -7.039289      -191.5488
   6   1.0000      -7.036764      -191.4801
   7   1.0000      -5.749035      -156.4392
   8   1.0000      -5.740269      -156.2007
   9   1.0000      -5.733541      -156.0176
  10   1.0000      -0.822793       -22.3893
  11   1.0000      -0.603361       -16.4183
  12   1.0000      -0.393927       -10.7193
  13   1.0000      -0.347457        -9.4548
  14   1.0000      -0.346883        -9.4392
  15   1.0000      -0.212798        -5.7905
  16   0.0000      -0.203565        -5.5393
  17   0.0000      -0.095656        -2.6029
  18   0.0000      -0.008574        -0.2333
  19   0.0000       0.017954         0.4885
  20   0.0000       0.019478         0.5300

MULLIKEN ATOMIC CHARGES AND SPIN POPULATIONS
--------------------------------------------
   0 S :   -0.107879    0.795914
   1 Cl:    0.107879    0.204086
Sum of atomic charges         :    0.0000000

LOEWDIN ATOMIC CHARGES AND SPIN POPULATIONS
-------------------------------------------
   0 S :    0.140204    0.659936
   1 Cl:   -0.140204    0.340064

  Mayer bond orders larger than 0.1
B(  0-S ,  1-Cl) :   1.4707

FINAL SINGLE POINT ENERGY      -858.050613605740

DIPOLE MOMENT
-------------
                                X             Y             Z
Electronic contribution:      0.00000      -0.00000       1.29962
Nuclear contribution   :      0.00000       0.00000      -1.22898
                        -----------------------------------------
Total Dipole Moment    :      0.00000      -0.00000       0.07064
                        -----------------------------------------
Magnitude (a.u.)       :      0.07064
Magnitude (Debye)      :      0.17955

Rotational constants in cm-1:     0.000000     0.256627     0.256627
Rotational constants in MHz :     0.000000  7693.471946  7693.471946

                             ****ORCA TERMINATED NORMALLY****
TOTAL RUN TIME: 0 days 1 hours 6 minutes 11 seconds 738 msec
