                         Program Version 4.1.2  - RELEASE  -
|  1> !uks pbe nori aug-pc-4 grid7 nofinalgrid verytightscf
|  2>
|  3> %maxcore 1500
|  4>
|  5> %pal nprocs 1 end
|  6>
|  7> %scf
|  8> 	maxiter 200
|  9> end
| 10> %elprop
| 11> 	dipole true
| 12> 	 polar 1
| 13> 	 maxiter 200
| 14> end
| 15>
| 16> * xyz 0 1
| 17> S 0.0000 0.0000 0.5511
| 18> F 0.0000 1.1985 -0.4899
| 19> F 0.0000 -1.1985 -0.4899
| 20> *
| 21>
| 22>                          ****END OF INPUT****

CARTESIAN COORDINATES (ANGSTROEM)
---------------------------------
  S      0.000000    0.000000    0.551100
  F      0.000000    1.198500   -0.489900
  F      0.000000   -1.198500   -0.489900

 Total Charge           Charge          ....    0
 Multiplicity           Mult            ....    1
 Number of Electrons    NEL             ....   34
 Basis Dimension        Dim             ....  431

ORBITAL ENERGIES
----------------
                 SPIN UP ORBITALS
  NO   OCC          E(Eh)            E(eV)
   0   1.0000     -88.162776     -2399.0311
   1   1.0000     -24.309360      -661.4913
   2   1.0000     -24.309360      -661.4913
   3   1.0000      -7.788645      -211.9398
   4   1.0000      -5.814785      -158.2283
   5   1.0000      -5.810248      -158.1049
   6   1.0000      -5.793772      -157.6565
   7   1.0000      -1.177718       -32.0473
   8   1.0000      -1.136641       -30.9296
   9   1.0000      -0.677482       -18.4352
  10   1.0000      -0.524327       -14.2677
  11   1.0000      -0.476642       -12.9701
  12   1.0000      -0.455097       -12.3838
  13   1.0000      -0.407254       -11.0820
  14   1.0000      -0.398325       -10.8390
  15   1.0000      -0.390872       -10.6362
  16   1.0000      -0.211958        -5.7677
  17   0.0000      -0.107402        -2.9225
  18   0.0000      -0.069216        -1.8835
  19   0.0000      -0.006109        -0.1662
  20   0.0000       0.017457         0.4750
  21   0.0000       0.021815         0.5936

                 SPIN DOWN ORBITALS
  NO   OCC          E(Eh)            E(eV)
   0   1.0000     -88.162776     -2399.0311
   1   1.0000     -24.309360      -661.4913
   2   1.0000     -24.309360      -661.4913
   3   1.0000      -7.788645      -211.9398
   4   1.0000      -5.814785      -158.2283
   5   1.0000      -5.810248      -158.1049
   6   1.0000      -5.793772      -157.6565
   7   1.0000      -1.177718       -32.0473
   8   1.0000      -1.136641       -30.9296
   9   1.0000      -0.677482       -18.4352
  10   1.0000      -0.524327       -14.2677
  11   1.0000      -0.476642       -12.9701
  12   1.0000      -0.455097       -12.3838
  13   1.0000      -0.407254       -11.0820
  14   1.0000      -0.398325       -10.8390
  15   1.0000      -0.390872       -10.6362
  16   1.0000      -0.211958        -5.7677
  17   0.0000      -0.107402        -2.9225
  18   0.0000      -0.069216        -1.8835
  19   0.0000      -0.006109        -0.1662
  20   0.0000       0.017457         0.4750
  21   0.0000       0.021815         0.5936

MULLIKEN ATOMIC CHARGES AND SPIN POPULATIONS
--------------------------------------------
   0 S :    0.102565    0.000000
   1 F :   -0.051282    0.000000
   2 F :   -0.051282   -0.000000
Sum of atomic charges         :   -0.0000000

LOEWDIN ATOMIC CHARGES AND SPIN POPULATIONS
-------------------------------------------
   0 S :    1.325522    0.000000
   1 F :   -0.662761   -0.000000
   2 F :   -0.662761   -0.000000

  Mayer bond orders larger than 0.1
B(  0-S ,  1-F ) :   1.0167 B(  0-S ,  2-F ) :   1.0167

FINAL SINGLE POINT ENERGY      -597.611847663570

DIPOLE MOMENT
-------------
                                X             Y             Z
Electronic contribution:     -0.00000      -0.00000      -0.55276
Nuclear contribution   :      0.00000       0.00000       0.86645
                        -----------------------------------------
Total Dipole Moment    :     -0.00000      -0.00000       0.31370
                        -----------------------------------------
Magnitude (a.u.)       :      0.31370
Magnitude (Debye)      :      0.79735

Rotational constants in cm-1:     0.894622     0.308875     0.229603
Rotational constants in MHz : 26820.080967  9259.843531  6883.322421

                             ****ORCA TERMINATED NORMALLY****
TOTAL RUN TIME: 0 days 3 hours 2 minutes 36 seconds 403 msec
