                         Program Version 4.1.2  - RELEASE  -
|  1> !uks pbe nori aug-pc-4 grid7 nofinalgrid verytightscf
|  2>
|  3> %maxcore 1500
|  4>
|  5> %pal nprocs 1 end
|  6>
|  7> %scf
|  8> 	maxiter 200
|  9> end
| 10> %elprop
| 11> 	dipole true
| 12> 	 polar 1
| 13> 	 maxiter 200
| 14> end
| 15>
| 16> * xyz 0 2
| 17> S 0.0000 0.0000 0.0000
| 18> F 0.0000 0.0000 1.6006
| 19> *
| 20>
| 21>                          ****END OF INPUT****

CARTESIAN COORDINATES (ANGSTROEM)
---------------------------------
  S      0.000000    0.000000    0.000000
  F      0.000000    0.000000    1.600600

 Total Charge           Charge          ....    0
 Multiplicity           Mult            ....    2
 Number of Electrons    NEL             ....   25
 Basis Dimension        Dim             ....  286

ORBITAL ENERGIES
----------------
                 SPIN UP ORBITALS
  NO   OCC          E(Eh)            E(eV)
   0   1.0000     -88.122165     -2397.9260
   1   1.0000     -24.315028      -661.6455
   2   1.0000      -7.753004      -210.9700
   3   1.0000      -5.777765      -157.2210
   4   1.0000      -5.776753      -157.1934
   5   1.0000      -5.759007      -156.7105
   6   1.0000      -1.155035       -31.4301
   7   1.0000      -0.667349       -18.1595
   8   1.0000      -0.465407       -12.6644
   9   1.0000      -0.448150       -12.1948
  10   1.0000      -0.430629       -11.7180
  11   1.0000      -0.269288        -7.3277
  12   1.0000      -0.228315        -6.2128
  13   0.0000      -0.108258        -2.9459
  14   0.0000      -0.008444        -0.2298
  15   0.0000       0.016450         0.4476
  16   0.0000       0.019368         0.5270
  17   0.0000       0.025383         0.6907

                 SPIN DOWN ORBITALS
  NO   OCC          E(Eh)            E(eV)
   0   1.0000     -88.117848     -2397.8085
   1   1.0000     -24.311275      -661.5434
   2   1.0000      -7.748576      -210.8495
   3   1.0000      -5.775133      -157.1493
   4   1.0000      -5.763879      -156.8431
   5   1.0000      -5.756400      -156.6396
   6   1.0000      -1.147780       -31.2327
   7   1.0000      -0.642014       -17.4701
   8   1.0000      -0.450929       -12.2704
   9   1.0000      -0.427009       -11.6195
  10   1.0000      -0.426942       -11.6177
  11   1.0000      -0.217585        -5.9208
  12   0.0000      -0.204803        -5.5730
  13   0.0000      -0.093943        -2.5563
  14   0.0000      -0.002564        -0.0698
  15   0.0000       0.019989         0.5439
  16   0.0000       0.023418         0.6372

MULLIKEN ATOMIC CHARGES AND SPIN POPULATIONS
--------------------------------------------
   0 S :    0.005687    0.914823
   1 F :   -0.005687    0.085177
Sum of atomic charges         :   -0.0000000

LOEWDIN ATOMIC CHARGES AND SPIN POPULATIONS
-------------------------------------------
   0 S :    0.998756    0.671448
   1 F :   -0.998756    0.328552

  Mayer bond orders larger than 0.1
B(  0-S ,  1-F ) :   0.9768

FINAL SINGLE POINT ENERGY      -497.780799061331

DIPOLE MOMENT
-------------
                                X             Y             Z
Electronic contribution:      0.00000      -0.00000       0.70057
Nuclear contribution   :      0.00000       0.00000      -0.91396
                        -----------------------------------------
Total Dipole Moment    :      0.00000      -0.00000      -0.21339
                        -----------------------------------------
Magnitude (a.u.)       :      0.21339
Magnitude (Debye)      :      0.54239

Rotational constants in cm-1:     0.000000     0.551599     0.551599
Rotational constants in MHz :     0.000000 16536.529748 16536.529748

                             ****ORCA TERMINATED NORMALLY****
TOTAL RUN TIME: 0 days 0 hours 54 minutes 32 seconds 133 msec
