                         Program Version 4.1.2  - RELEASE  -
|  1> !uks pbe nori aug-pc-4 grid7 nofinalgrid verytightscf
|  2>
|  3> %maxcore 1500
|  4>
|  5> %pal nprocs 1 end
|  6>
|  7> %scf
|  8> 	maxiter 200
|  9> end
| 10> %elprop
| 11> 	dipole true
| 12> 	 polar 1
| 13> 	 maxiter 200
| 14> end
| 15>
| 16> * xyz 0 1
| 17> S 0.0000 0.0000 0.1030
| 18> H 0.0000 0.9616 -0.8239
| 19> H 0.0000 -0.9616 -0.8239
| 20> *
| 21>
| 22>                          ****END OF INPUT****

CARTESIAN COORDINATES (ANGSTROEM)
---------------------------------
  S      0.000000    0.000000    0.103000
  H      0.000000    0.961600   -0.823900
  H      0.000000   -0.961600   -0.823900

 Total Charge           Charge          ....    0
 Multiplicity           Mult            ....    1
 Number of Electrons    NEL             ....   18
 Basis Dimension        Dim             ....  317

ORBITAL ENERGIES
----------------
                 SPIN UP ORBITALS
  NO   OCC          E(Eh)            E(eV)
   0   1.0000     -88.038192     -2395.6410
   1   1.0000      -7.679229      -208.9625
   2   1.0000      -5.700074      -155.1069
   3   1.0000      -5.696722      -155.0157
   4   1.0000      -5.690044      -154.8340
   5   1.0000      -0.680983       -18.5305
   6   1.0000      -0.406315       -11.0564
   7   1.0000      -0.333588        -9.0774
   8   1.0000      -0.231595        -6.3020
   9   0.0000      -0.031620        -0.8604
  10   0.0000      -0.022677        -0.6171
  11   0.0000       0.013556         0.3689
  12   0.0000       0.018202         0.4953
  13   0.0000       0.020537         0.5588

                 SPIN DOWN ORBITALS
  NO   OCC          E(Eh)            E(eV)
   0   1.0000     -88.038192     -2395.6410
   1   1.0000      -7.679229      -208.9625
   2   1.0000      -5.700074      -155.1069
   3   1.0000      -5.696722      -155.0157
   4   1.0000      -5.690044      -154.8340
   5   1.0000      -0.680983       -18.5305
   6   1.0000      -0.406315       -11.0564
   7   1.0000      -0.333588        -9.0774
   8   1.0000      -0.231595        -6.3020
   9   0.0000      -0.031620        -0.8604
  10   0.0000      -0.022677        -0.6171
  11   0.0000       0.013556         0.3689
  12   0.0000       0.018202         0.4953
  13   0.0000       0.020537         0.5588

MULLIKEN ATOMIC CHARGES AND SPIN POPULATIONS
--------------------------------------------
   0 S :   -0.139044   -0.000000
   1 H :    0.069515    0.000000
   2 H :    0.069529    0.000000
Sum of atomic charges         :   -0.0000000

LOEWDIN ATOMIC CHARGES AND SPIN POPULATIONS
-------------------------------------------
   0 S :    1.832879   -0.000000
   1 H :   -0.916439   -0.000000
   2 H :   -0.916439    0.000000

  Mayer bond orders larger than 0.1
B(  0-S ,  1-H ) :   1.0335 B(  0-S ,  2-H ) :   1.0335

FINAL SINGLE POINT ENERGY      -399.242866334933

DIPOLE MOMENT
-------------
                                X             Y             Z
Electronic contribution:     -0.00000       0.00000       1.25799
Nuclear contribution   :      0.00000       0.00000      -1.63789
                        -----------------------------------------
Total Dipole Moment    :     -0.00000       0.00000      -0.37990
                        -----------------------------------------
Magnitude (a.u.)       :      0.37990
Magnitude (Debye)      :      0.96562

Rotational constants in cm-1:    10.344886     9.043103     4.825145
Rotational constants in MHz : 310131.873993 271105.399200 144654.221918

                             ****ORCA TERMINATED NORMALLY****
TOTAL RUN TIME: 0 days 0 hours 47 minutes 38 seconds 377 msec
