                         Program Version 4.1.2  - RELEASE  -
|  1> !uks pbe nori aug-pc-4 grid7 nofinalgrid verytightscf
|  2>
|  3> %maxcore 1500
|  4>
|  5> %pal nprocs 1 end
|  6>
|  7> %scf
|  8> 	maxiter 200
|  9> end
| 10> %elprop
| 11> 	dipole true
| 12> 	 polar 1
| 13> 	 maxiter 200
| 14> end
| 15>
| 16> * xyz 0 2
| 17> S 0.0000 0.0000 0.0000
| 18> H 0.0000 0.0000 1.3409
| 19> *
| 20>
| 21>                          ****END OF INPUT****

CARTESIAN COORDINATES (ANGSTROEM)
---------------------------------
  S      0.000000    0.000000    0.000000
  H      0.000000    0.000000    1.340900

 Total Charge           Charge          ....    0
 Multiplicity           Mult            ....    2
 Number of Electrons    NEL             ....   17
 Basis Dimension        Dim             ....  229

ORBITAL ENERGIES
----------------
                 SPIN UP ORBITALS
  NO   OCC          E(Eh)            E(eV)
   0   1.0000     -88.067847     -2396.4480
   1   1.0000      -7.705048      -209.6650
   2   1.0000      -5.732092      -155.9781
   3   1.0000      -5.722507      -155.7173
   4   1.0000      -5.713596      -155.4749
   5   1.0000      -0.673437       -18.3251
   6   1.0000      -0.375159       -10.2086
   7   1.0000      -0.288569        -7.8523
   8   1.0000      -0.241660        -6.5759
   9   0.0000      -0.032696        -0.8897
  10   0.0000       0.007307         0.1988
  11   0.0000       0.017183         0.4676
  12   0.0000       0.017486         0.4758
  13   0.0000       0.020605         0.5607

                 SPIN DOWN ORBITALS
  NO   OCC          E(Eh)            E(eV)
   0   1.0000     -88.063280     -2396.3237
   1   1.0000      -7.700277      -209.5352
   2   1.0000      -5.719587      -155.6379
   3   1.0000      -5.718455      -155.6071
   4   1.0000      -5.710767      -155.3979
   5   1.0000      -0.640629       -17.4324
   6   1.0000      -0.362746        -9.8708
   7   1.0000      -0.228911        -6.2290
   8   0.0000      -0.212536        -5.7834
   9   0.0000      -0.025765        -0.7011
  10   0.0000       0.015806         0.4301
  11   0.0000       0.019181         0.5219
  12   0.0000       0.021298         0.5795

MULLIKEN ATOMIC CHARGES AND SPIN POPULATIONS
--------------------------------------------
   0 S :   -0.047515    1.036758
   1 H :    0.047515   -0.036758
Sum of atomic charges         :    0.0000000

LOEWDIN ATOMIC CHARGES AND SPIN POPULATIONS
-------------------------------------------
   0 S :    1.201792    0.781598
   1 H :   -1.201792    0.218402

  Mayer bond orders larger than 0.1
B(  0-S ,  1-H ) :   1.0946

FINAL SINGLE POINT ENERGY      -398.592886215598

DIPOLE MOMENT
-------------
                                X             Y             Z
Electronic contribution:      0.00000      -0.00000      -0.92773
Nuclear contribution   :      0.00000       0.00000       1.22084
                        -----------------------------------------
Total Dipole Moment    :      0.00000      -0.00000       0.29310
                        -----------------------------------------
Magnitude (a.u.)       :      0.29310
Magnitude (Debye)      :      0.74501

Rotational constants in cm-1:     0.000000     9.593741     9.593741
Rotational constants in MHz :     0.000000 287613.125246 287613.125246

                             ****ORCA TERMINATED NORMALLY****
TOTAL RUN TIME: 0 days 0 hours 18 minutes 23 seconds 296 msec
