                         Program Version 4.1.2  - RELEASE  -
|  1> !uks pbe nori aug-pc-4 grid7 nofinalgrid verytightscf
|  2>
|  3> %maxcore 1500
|  4>
|  5> %pal nprocs 1 end
|  6>
|  7> %scf
|  8> 	maxiter 200
|  9> end
| 10> %elprop
| 11> 	dipole true
| 12> 	 polar 1
| 13> 	 maxiter 200
| 14> end
| 15>
| 16> * xyz 0 2
| 17> Si 0.0000 0.0000 0.0819
| 18> H 0.0000 1.3928 -0.3820
| 19> H 1.2062 -0.6964 -0.3820
| 20> H -1.2062 -0.6964 -0.3820
| 21> *
| 22>
| 23>                          ****END OF INPUT****

CARTESIAN COORDINATES (ANGSTROEM)
---------------------------------
  Si     0.000000    0.000000    0.081900
  H      0.000000    1.392800   -0.382000
  H      1.206200   -0.696400   -0.382000
  H     -1.206200   -0.696400   -0.382000

 Total Charge           Charge          ....    0
 Multiplicity           Mult            ....    2
 Number of Electrons    NEL             ....   17
 Basis Dimension        Dim             ....  405

ORBITAL ENERGIES
----------------
                 SPIN UP ORBITALS
  NO   OCC          E(Eh)            E(eV)
   0   1.0000     -65.389563     -1779.3405
   1   1.0000      -5.057021      -137.6085
   2   1.0000      -3.470208       -94.4292
   3   1.0000      -3.464489       -94.2735
   4   1.0000      -3.464489       -94.2735
   5   1.0000      -0.491848       -13.3839
   6   1.0000      -0.322231        -8.7684
   7   1.0000      -0.322231        -8.7684
   8   1.0000      -0.197349        -5.3701
   9   0.0000      -0.019851        -0.5402
  10   0.0000      -0.005854        -0.1593
  11   0.0000      -0.005854        -0.1593
  12   0.0000       0.009046         0.2462
  13   0.0000       0.011718         0.3189

                 SPIN DOWN ORBITALS
  NO   OCC          E(Eh)            E(eV)
   0   1.0000     -65.386760     -1779.2642
   1   1.0000      -5.053433      -137.5109
   2   1.0000      -3.462112       -94.2089
   3   1.0000      -3.462112       -94.2089
   4   1.0000      -3.461783       -94.1999
   5   1.0000      -0.474248       -12.9049
   6   1.0000      -0.315990        -8.5985
   7   1.0000      -0.315990        -8.5985
   8   0.0000      -0.129892        -3.5345
   9   0.0000      -0.011553        -0.3144
  10   0.0000       0.006069         0.1651
  11   0.0000       0.006069         0.1651
  12   0.0000       0.016568         0.4508

MULLIKEN ATOMIC CHARGES AND SPIN POPULATIONS
--------------------------------------------
   0 Si:   -0.013740    1.078052
   1 H :    0.004581   -0.026018
   2 H :    0.004578   -0.026019
   3 H :    0.004581   -0.026015
Sum of atomic charges         :    0.0000000

LOEWDIN ATOMIC CHARGES AND SPIN POPULATIONS
-------------------------------------------
   0 Si:    1.683143    0.491609
   1 H :   -0.561048    0.169464
   2 H :   -0.561048    0.169464
   3 H :   -0.561048    0.169464

  Mayer bond orders larger than 0.1
B(  0-Si,  1-H ) :   0.9419 B(  0-Si,  2-H ) :   0.9419 B(  0-Si,  3-H ) :   0.9419

FINAL SINGLE POINT ENERGY      -291.087986941655

DIPOLE MOMENT
-------------
                                X             Y             Z
Electronic contribution:     -0.00000      -0.00000       1.19594
Nuclear contribution   :      0.00000       0.00000      -1.18131
                        -----------------------------------------
Total Dipole Moment    :     -0.00000      -0.00000       0.01463
                        -----------------------------------------
Magnitude (a.u.)       :      0.01463
Magnitude (Debye)      :      0.03718

Rotational constants in cm-1:     4.788243     4.788242     2.873675
Rotational constants in MHz : 143547.920390 143547.884222 86150.611924

                             ****ORCA TERMINATED NORMALLY****
TOTAL RUN TIME: 0 days 1 hours 39 minutes 41 seconds 539 msec
