                         Program Version 4.1.2  - RELEASE  -
|  1> !uks pbe nori aug-pc-4 grid7 nofinalgrid verytightscf
|  2>
|  3> %maxcore 1500
|  4>
|  5> %pal nprocs 4 end
|  6>
|  7> %scf
|  8> 	maxiter 200
|  9> end
| 10> %elprop
| 11> 	dipole true
| 12> 	 polar 1
| 13> 	 maxiter 200
| 14> end
| 15>
| 16> * xyz 0 1
| 17> Si 0.0000 0.0000 -0.9844
| 18> Cl 0.0000 0.0000 1.0661
| 19> H 0.0000 1.4004 -1.4474
| 20> H 1.2128 -0.7002 -1.4474
| 21> H -1.2128 -0.7002 -1.4474
| 22> *
| 23>
| 24>                          ****END OF INPUT****

CARTESIAN COORDINATES (ANGSTROEM)
---------------------------------
  Si     0.000000    0.000000   -0.984400
  Cl     0.000000    0.000000    1.066100
  H      0.000000    1.400400   -1.447400
  H      1.212800   -0.700200   -1.447400
  H     -1.212800   -0.700200   -1.447400

 Total Charge           Charge          ....    0
 Multiplicity           Mult            ....    1
 Number of Electrons    NEL             ....   34
 Basis Dimension        Dim             ....  546

ORBITAL ENERGIES
----------------
                 SPIN UP ORBITALS
  NO   OCC          E(Eh)            E(eV)
   0   1.0000    -100.649164     -2738.8030
   1   1.0000     -65.416598     -1780.0761
   2   1.0000      -9.174844      -249.6602
   3   1.0000      -6.994593      -190.3326
   4   1.0000      -6.988609      -190.1697
   5   1.0000      -6.988609      -190.1697
   6   1.0000      -5.081144      -138.2650
   7   1.0000      -3.492731       -95.0420
   8   1.0000      -3.489028       -94.9413
   9   1.0000      -3.489028       -94.9413
  10   1.0000      -0.759066       -20.6552
  11   1.0000      -0.500292       -13.6136
  12   1.0000      -0.357711        -9.7338
  13   1.0000      -0.345907        -9.4126
  14   1.0000      -0.345907        -9.4126
  15   1.0000      -0.282919        -7.6986
  16   1.0000      -0.282919        -7.6986
  17   0.0000      -0.044167        -1.2019
  18   0.0000      -0.020747        -0.5646
  19   0.0000      -0.000714        -0.0194
  20   0.0000      -0.000714        -0.0194
  21   0.0000       0.008925         0.2429

                 SPIN DOWN ORBITALS
  NO   OCC          E(Eh)            E(eV)
   0   1.0000    -100.649164     -2738.8030
   1   1.0000     -65.416598     -1780.0761
   2   1.0000      -9.174844      -249.6602
   3   1.0000      -6.994593      -190.3326
   4   1.0000      -6.988609      -190.1697
   5   1.0000      -6.988609      -190.1697
   6   1.0000      -5.081144      -138.2650
   7   1.0000      -3.492731       -95.0420
   8   1.0000      -3.489028       -94.9413
   9   1.0000      -3.489028       -94.9413
  10   1.0000      -0.759066       -20.6552
  11   1.0000      -0.500292       -13.6136
  12   1.0000      -0.357711        -9.7338
  13   1.0000      -0.345907        -9.4126
  14   1.0000      -0.345907        -9.4126
  15   1.0000      -0.282919        -7.6986
  16   1.0000      -0.282919        -7.6986
  17   0.0000      -0.044167        -1.2019
  18   0.0000      -0.020747        -0.5646
  19   0.0000      -0.000714        -0.0194
  20   0.0000      -0.000714        -0.0194
  21   0.0000       0.008925         0.2429

MULLIKEN ATOMIC CHARGES AND SPIN POPULATIONS
--------------------------------------------
   0 Si:    0.459701   -0.000000
   1 Cl:   -0.232108    0.000000
   2 H :   -0.075837   -0.000000
   3 H :   -0.075875    0.000000
   4 H :   -0.075880    0.000000
Sum of atomic charges         :    0.0000000

LOEWDIN ATOMIC CHARGES AND SPIN POPULATIONS
-------------------------------------------
   0 Si:    1.247456   -0.000000
   1 Cl:    0.726854    0.000000
   2 H :   -0.658112   -0.000000
   3 H :   -0.658099   -0.000000
   4 H :   -0.658099    0.000000

  Mayer bond orders larger than 0.1
B(  0-Si,  1-Cl) :   1.0447 B(  0-Si,  2-H ) :   0.9426 B(  0-Si,  3-H ) :   0.9426
B(  0-Si,  4-H ) :   0.9426

FINAL SINGLE POINT ENERGY      -751.236318427258

DIPOLE MOMENT
-------------
                                X             Y             Z
Electronic contribution:      0.00000       0.00000       5.09511
Nuclear contribution   :      0.00000       0.00000      -5.57134
                        -----------------------------------------
Total Dipole Moment    :      0.00000       0.00000      -0.47623
                        -----------------------------------------
Magnitude (a.u.)       :      0.47623
Magnitude (Debye)      :      1.21048

Rotational constants in cm-1:     2.842526     0.220906     0.220906
Rotational constants in MHz : 85216.787546  6622.605522  6622.597873

                             ****ORCA TERMINATED NORMALLY****
TOTAL RUN TIME: 0 days 1 hours 30 minutes 19 seconds 778 msec
