                         Program Version 4.1.2  - RELEASE  -
|  1> !uks pbe nori aug-pc-4 grid7 nofinalgrid verytightscf
|  2>
|  3> %maxcore 1500
|  4>
|  5> %pal nprocs 1 end
|  6>
|  7> %scf
|  8> 	maxiter 200
|  9> end
| 10> %elprop
| 11> 	dipole true
| 12> 	 polar 1
| 13> 	 maxiter 200
| 14> end
| 15>
| 16> * xyz 0 1
| 17> Si 0.0000 0.0000 0.0000
| 18> H 0.8544 0.8544 0.8544
| 19> H -0.8544 -0.8544 0.8544
| 20> H -0.8544 0.8544 -0.8544
| 21> H 0.8544 -0.8544 -0.8544
| 22> *
| 23>
| 24>                          ****END OF INPUT****

CARTESIAN COORDINATES (ANGSTROEM)
---------------------------------
  Si     0.000000    0.000000    0.000000
  H      0.854400    0.854400    0.854400
  H     -0.854400   -0.854400    0.854400
  H     -0.854400    0.854400   -0.854400
  H      0.854400   -0.854400   -0.854400

 Total Charge           Charge          ....    0
 Multiplicity           Mult            ....    1
 Number of Electrons    NEL             ....   18
 Basis Dimension        Dim             ....  493

ORBITAL ENERGIES
----------------
                 SPIN UP ORBITALS
  NO   OCC          E(Eh)            E(eV)
   0   1.0000     -65.375446     -1778.9563
   1   1.0000      -5.044483      -137.2674
   2   1.0000      -3.453310       -93.9693
   3   1.0000      -3.453310       -93.9693
   4   1.0000      -3.453310       -93.9693
   5   1.0000      -0.494794       -13.4640
   6   1.0000      -0.313207        -8.5228
   7   1.0000      -0.313207        -8.5228
   8   1.0000      -0.313207        -8.5228
   9   0.0000      -0.017720        -0.4822
  10   0.0000      -0.002375        -0.0646
  11   0.0000      -0.002375        -0.0646
  12   0.0000      -0.002375        -0.0646
  13   0.0000       0.013890         0.3780

                 SPIN DOWN ORBITALS
  NO   OCC          E(Eh)            E(eV)
   0   1.0000     -65.375446     -1778.9563
   1   1.0000      -5.044483      -137.2674
   2   1.0000      -3.453310       -93.9693
   3   1.0000      -3.453310       -93.9693
   4   1.0000      -3.453310       -93.9693
   5   1.0000      -0.494794       -13.4640
   6   1.0000      -0.313207        -8.5228
   7   1.0000      -0.313207        -8.5228
   8   1.0000      -0.313207        -8.5228
   9   0.0000      -0.017720        -0.4822
  10   0.0000      -0.002375        -0.0646
  11   0.0000      -0.002375        -0.0646
  12   0.0000      -0.002375        -0.0646
  13   0.0000       0.013890         0.3780

MULLIKEN ATOMIC CHARGES AND SPIN POPULATIONS
--------------------------------------------
   0 Si:    0.097187    0.000000
   1 H :   -0.024288   -0.000000
   2 H :   -0.024283   -0.000000
   3 H :   -0.024305   -0.000000
   4 H :   -0.024310   -0.000000
Sum of atomic charges         :    0.0000000

LOEWDIN ATOMIC CHARGES AND SPIN POPULATIONS
-------------------------------------------
   0 Si:    1.820048    0.000000
   1 H :   -0.455012   -0.000000
   2 H :   -0.455012   -0.000000
   3 H :   -0.455012    0.000000
   4 H :   -0.455012   -0.000000

  Mayer bond orders larger than 0.1
B(  0-Si,  1-H ) :   0.9396 B(  0-Si,  2-H ) :   0.9396 B(  0-Si,  3-H ) :   0.9396
B(  0-Si,  4-H ) :   0.9397

FINAL SINGLE POINT ENERGY      -291.733704524021

DIPOLE MOMENT
-------------
                                X             Y             Z
Electronic contribution:     -0.00000      -0.00000       0.00000
Nuclear contribution   :      0.00000       0.00000       0.00000
                        -----------------------------------------
Total Dipole Moment    :     -0.00000      -0.00000       0.00000
                        -----------------------------------------
Magnitude (a.u.)       :      0.00000
Magnitude (Debye)      :      0.00000

Rotational constants in cm-1:     2.863676     2.863676     2.863676
Rotational constants in MHz : 85850.851198 85850.851198 85850.851198

                             ****ORCA TERMINATED NORMALLY****
TOTAL RUN TIME: 0 days 3 hours 2 minutes 48 seconds 421 msec
