                         Program Version 4.1.2  - RELEASE  -
|  1> !uks pbe nori aug-pc-4 grid7 nofinalgrid verytightscf
|  2>
|  3> %maxcore 1500
|  4>
|  5> %pal nprocs 1 end
|  6>
|  7> %scf
|  8> 	maxiter 200
|  9> end
| 10> %elprop
| 11> 	dipole true
| 12> 	 polar 1
| 13> 	 maxiter 200
| 14> end
| 15>
| 16> * xyz 0 1
| 17> Si 0.0000 0.0000 0.0000
| 18> O 0.0000 0.0000 1.5097
| 19> *
| 20>
| 21>                          ****END OF INPUT****

CARTESIAN COORDINATES (ANGSTROEM)
---------------------------------
  Si     0.000000    0.000000    0.000000
  O      0.000000    0.000000    1.509700

 Total Charge           Charge          ....    0
 Multiplicity           Mult            ....    1
 Number of Electrons    NEL             ....   22
 Basis Dimension        Dim             ....  286

ORBITAL ENERGIES
----------------
                 SPIN UP ORBITALS
  NO   OCC          E(Eh)            E(eV)
   0   1.0000     -65.419291     -1780.1494
   1   1.0000     -18.740713      -509.9607
   2   1.0000      -5.083270      -138.3228
   3   1.0000      -3.495496       -95.1173
   4   1.0000      -3.495496       -95.1173
   5   1.0000      -3.487257       -94.8931
   6   1.0000      -0.860980       -23.4285
   7   1.0000      -0.392861       -10.6903
   8   1.0000      -0.298316        -8.1176
   9   1.0000      -0.298316        -8.1176
  10   1.0000      -0.274336        -7.4651
  11   0.0000      -0.105618        -2.8740
  12   0.0000      -0.105618        -2.8740
  13   0.0000      -0.017129        -0.4661
  14   0.0000      -0.003244        -0.0883
  15   0.0000       0.015469         0.4209

                 SPIN DOWN ORBITALS
  NO   OCC          E(Eh)            E(eV)
   0   1.0000     -65.419291     -1780.1494
   1   1.0000     -18.740713      -509.9607
   2   1.0000      -5.083270      -138.3228
   3   1.0000      -3.495496       -95.1173
   4   1.0000      -3.495496       -95.1173
   5   1.0000      -3.487257       -94.8931
   6   1.0000      -0.860980       -23.4285
   7   1.0000      -0.392861       -10.6903
   8   1.0000      -0.298316        -8.1176
   9   1.0000      -0.298316        -8.1176
  10   1.0000      -0.274336        -7.4651
  11   0.0000      -0.105618        -2.8740
  12   0.0000      -0.105618        -2.8740
  13   0.0000      -0.017129        -0.4661
  14   0.0000      -0.003244        -0.0883
  15   0.0000       0.015469         0.4209

MULLIKEN ATOMIC CHARGES AND SPIN POPULATIONS
--------------------------------------------
   0 Si:    0.525540   -0.000000
   1 O :   -0.525540    0.000000
Sum of atomic charges         :   -0.0000000

LOEWDIN ATOMIC CHARGES AND SPIN POPULATIONS
-------------------------------------------
   0 Si:    0.648639   -0.000000
   1 O :   -0.648639   -0.000000

  Mayer bond orders larger than 0.1
B(  0-Si,  1-O ) :   2.6816

FINAL SINGLE POINT ENERGY      -364.562443336617

DIPOLE MOMENT
-------------
                                X             Y             Z
Electronic contribution:      0.00000       0.00000      -1.18707
Nuclear contribution   :      0.00000       0.00000       0.04543
                        -----------------------------------------
Total Dipole Moment    :      0.00000       0.00000      -1.14164
                        -----------------------------------------
Magnitude (a.u.)       :      1.14164
Magnitude (Debye)      :      2.90182

Rotational constants in cm-1:     0.000000     0.725644     0.725644
Rotational constants in MHz :     0.000000 21754.264723 21754.264723

                             ****ORCA TERMINATED NORMALLY****
TOTAL RUN TIME: 0 days 0 hours 56 minutes 5 seconds 175 msec
