                         Program Version 4.1.2  - RELEASE  -
|  1> !uks pbe nori aug-pc-4 grid7 nofinalgrid verytightscf
|  2>
|  3> %maxcore 1500
|  4>
|  5> %pal nprocs 1 end
|  6>
|  7> %scf
|  8> 	maxiter 200
|  9> end
| 10> %elprop
| 11> 	dipole true
| 12> 	 polar 1
| 13> 	 maxiter 200
| 14> end
| 15>
| 16> * xyz 0 3
| 17> S 0.0000 0.0000 0.0000
| 18> O 0.0000 0.0000 1.4811
| 19> *
| 20>
| 21>                          ****END OF INPUT****

CARTESIAN COORDINATES (ANGSTROEM)
---------------------------------
  S      0.000000    0.000000    0.000000
  O      0.000000    0.000000    1.481100

 Total Charge           Charge          ....    0
 Multiplicity           Mult            ....    3
 Number of Electrons    NEL             ....   24
 Basis Dimension        Dim             ....  286

ORBITAL ENERGIES
----------------
                 SPIN UP ORBITALS
  NO   OCC          E(Eh)            E(eV)
   0   1.0000     -88.124706     -2397.9952
   1   1.0000     -18.823764      -512.2207
   2   1.0000      -7.757391      -211.0893
   3   1.0000      -5.775839      -157.1686
   4   1.0000      -5.775839      -157.1686
   5   1.0000      -5.775600      -157.1621
   6   1.0000      -1.004822       -27.3426
   7   1.0000      -0.619771       -16.8648
   8   1.0000      -0.411547       -11.1988
   9   1.0000      -0.406781       -11.0691
  10   1.0000      -0.406781       -11.0691
  11   1.0000      -0.224778        -6.1165
  12   1.0000      -0.224778        -6.1165
  13   0.0000      -0.047678        -1.2974
  14   0.0000      -0.012299        -0.3347
  15   0.0000       0.014707         0.4002
  16   0.0000       0.014707         0.4002
  17   0.0000       0.031707         0.8628

                 SPIN DOWN ORBITALS
  NO   OCC          E(Eh)            E(eV)
   0   1.0000     -88.118777     -2397.8338
   1   1.0000     -18.805430      -511.7218
   2   1.0000      -7.751357      -210.9251
   3   1.0000      -5.772179      -157.0690
   4   1.0000      -5.765165      -156.8781
   5   1.0000      -5.765165      -156.8781
   6   1.0000      -0.974993       -26.5309
   7   1.0000      -0.570403       -15.5214
   8   1.0000      -0.385241       -10.4829
   9   1.0000      -0.363006        -9.8779
  10   1.0000      -0.363006        -9.8779
  11   0.0000      -0.162218        -4.4142
  12   0.0000      -0.162218        -4.4142
  13   0.0000      -0.029823        -0.8115
  14   0.0000       0.001559         0.0424
  15   0.0000       0.023492         0.6392

MULLIKEN ATOMIC CHARGES AND SPIN POPULATIONS
--------------------------------------------
   0 S :    0.076339    1.285008
   1 O :   -0.076339    0.714992
Sum of atomic charges         :    0.0000000

LOEWDIN ATOMIC CHARGES AND SPIN POPULATIONS
-------------------------------------------
   0 S :    0.876820    1.082722
   1 O :   -0.876820    0.917278

  Mayer bond orders larger than 0.1
B(  0-S ,  1-O ) :   1.9999

FINAL SINGLE POINT ENERGY      -473.193098670668

DIPOLE MOMENT
-------------
                                X             Y             Z
Electronic contribution:     -0.00000      -0.00000      -0.56319
Nuclear contribution   :      0.00000       0.00000       0.02889
                        -----------------------------------------
Total Dipole Moment    :     -0.00000      -0.00000      -0.53431
                        -----------------------------------------
Magnitude (a.u.)       :      0.53431
Magnitude (Debye)      :      1.35810

Rotational constants in cm-1:     0.000000     0.720023     0.720023
Rotational constants in MHz :     0.000000 21585.753511 21585.753511

                             ****ORCA TERMINATED NORMALLY****
TOTAL RUN TIME: 0 days 0 hours 55 minutes 46 seconds 744 msec
