                         Program Version 4.1.2  - RELEASE  -
|  1> !uks pbe nori aug-pc-4 grid7 nofinalgrid verytightscf
|  2>
|  3> %maxcore 1500
|  4>
|  5> %pal nprocs 1 end
|  6>
|  7> %scf
|  8> 	maxiter 200
|  9> end
| 10> %elprop
| 11> 	dipole true
| 12> 	 polar 1
| 13> 	 maxiter 200
| 14> end
| 15>
| 16> * xyz 0 1
| 17> S 0.0000 0.0000 0.0000
| 18> O 0.0000 1.2371 0.7215
| 19> O 0.0000 -1.2371 0.7215
| 20> *
| 21>
| 22>                          ****END OF INPUT****

CARTESIAN COORDINATES (ANGSTROEM)
---------------------------------
  S      0.000000    0.000000    0.000000
  O      0.000000    1.237100    0.721500
  O      0.000000   -1.237100    0.721500

 Total Charge           Charge          ....    0
 Multiplicity           Mult            ....    1
 Number of Electrons    NEL             ....   32
 Basis Dimension        Dim             ....  431

ORBITAL ENERGIES
----------------
                 SPIN UP ORBITALS
  NO   OCC          E(Eh)            E(eV)
   0   1.0000     -88.197195     -2399.9677
   1   1.0000     -18.811293      -511.8813
   2   1.0000     -18.811293      -511.8813
   3   1.0000      -7.818161      -212.7430
   4   1.0000      -5.839806      -158.9092
   5   1.0000      -5.836503      -158.8193
   6   1.0000      -5.832912      -158.7216
   7   1.0000      -1.063439       -28.9377
   8   1.0000      -0.973916       -26.5016
   9   1.0000      -0.578525       -15.7425
  10   1.0000      -0.456049       -12.4097
  11   1.0000      -0.446129       -12.1398
  12   1.0000      -0.445690       -12.1278
  13   1.0000      -0.347783        -9.4637
  14   1.0000      -0.323181        -8.7942
  15   1.0000      -0.296634        -8.0718
  16   0.0000      -0.162071        -4.4102
  17   0.0000      -0.023716        -0.6453
  18   0.0000      -0.001502        -0.0409
  19   0.0000       0.002206         0.0600
  20   0.0000       0.013890         0.3780

                 SPIN DOWN ORBITALS
  NO   OCC          E(Eh)            E(eV)
   0   1.0000     -88.197195     -2399.9677
   1   1.0000     -18.811293      -511.8813
   2   1.0000     -18.811293      -511.8813
   3   1.0000      -7.818161      -212.7430
   4   1.0000      -5.839806      -158.9092
   5   1.0000      -5.836503      -158.8193
   6   1.0000      -5.832912      -158.7216
   7   1.0000      -1.063439       -28.9377
   8   1.0000      -0.973916       -26.5016
   9   1.0000      -0.578525       -15.7425
  10   1.0000      -0.456049       -12.4097
  11   1.0000      -0.446129       -12.1398
  12   1.0000      -0.445690       -12.1278
  13   1.0000      -0.347783        -9.4637
  14   1.0000      -0.323181        -8.7942
  15   1.0000      -0.296634        -8.0718
  16   0.0000      -0.162071        -4.4102
  17   0.0000      -0.023716        -0.6453
  18   0.0000      -0.001502        -0.0409
  19   0.0000       0.002206         0.0600
  20   0.0000       0.013890         0.3780

MULLIKEN ATOMIC CHARGES AND SPIN POPULATIONS
--------------------------------------------
   0 S :    0.214844   -0.000000
   1 O :   -0.107418    0.000000
   2 O :   -0.107426    0.000000
Sum of atomic charges         :    0.0000000

LOEWDIN ATOMIC CHARGES AND SPIN POPULATIONS
-------------------------------------------
   0 S :    0.985673   -0.000000
   1 O :   -0.492837   -0.000000
   2 O :   -0.492837    0.000000

  Mayer bond orders larger than 0.1
B(  0-S ,  1-O ) :   2.0016 B(  0-S ,  2-O ) :   2.0017 B(  1-O ,  2-O ) :   0.1966

FINAL SINGLE POINT ENERGY      -548.431339273346

DIPOLE MOMENT
-------------
                                X             Y             Z
Electronic contribution:      0.00000      -0.00000      -0.60538
Nuclear contribution   :      0.00000       0.00000       0.02111
                        -----------------------------------------
Total Dipole Moment    :      0.00000      -0.00000      -0.58426
                        -----------------------------------------
Magnitude (a.u.)       :      0.58426
Magnitude (Debye)      :      1.48508

Rotational constants in cm-1:     2.022140     0.344242     0.294165
Rotational constants in MHz : 60622.236728 10320.129716  8818.839547

                             ****ORCA TERMINATED NORMALLY****
TOTAL RUN TIME: 0 days 3 hours 26 minutes 30 seconds 149 msec
