                         Program Version 4.1.2  - RELEASE  -
|  1> !uks pbe nori aug-pc-4 grid5 nofinalgrid verytightscf
|  2>
|  3> %maxcore 6000
|  4>
|  5> %pal nprocs 4 end
|  6>
|  7> %scf
|  8> 	efield -0.001, 0.0, 0.0
|  9> 	maxiter 200
| 10> end
| 11>
| 12> * xyz 0 3
| 13> B 0.0000 0.0000 0.0000
| 14> N 0.0000 0.0000 1.3250
| 15> *
| 16>
| 17>                          ****END OF INPUT****

CARTESIAN COORDINATES (ANGSTROEM)
---------------------------------
  B      0.000000    0.000000    0.000000
  N      0.000000    0.000000    1.325000

 Total Charge           Charge          ....    0
 Multiplicity           Mult            ....    3
 Number of Electrons    NEL             ....   12
 Basis Dimension        Dim             ....  290

ORBITAL ENERGIES
----------------
                 SPIN UP ORBITALS
  NO   OCC          E(Eh)            E(eV)
   0   1.0000     -14.042711      -382.1216
   1   1.0000      -6.604828      -179.7265
   2   1.0000      -0.772814       -21.0293
   3   1.0000      -0.363936        -9.9032
   4   1.0000      -0.334799        -9.1103
   5   1.0000      -0.290333        -7.9004
   6   1.0000      -0.283350        -7.7103
   7   0.0000      -0.082250        -2.2381
   8   0.0000      -0.058408        -1.5894
   9   0.0000      -0.005354        -0.1457
  10   0.0000       0.007884         0.2145
  11   0.0000       0.012202         0.3320

                 SPIN DOWN ORBITALS
  NO   OCC          E(Eh)            E(eV)
   0   1.0000     -14.026603      -381.6833
   1   1.0000      -6.589437      -179.3077
   2   1.0000      -0.722051       -19.6480
   3   1.0000      -0.317868        -8.6496
   4   1.0000      -0.272389        -7.4121
   5   0.0000      -0.247520        -6.7354
   6   0.0000      -0.189614        -5.1597
   7   0.0000      -0.023157        -0.6301
   8   0.0000      -0.007254        -0.1974
   9   0.0000       0.006735         0.1833

MULLIKEN ATOMIC CHARGES AND SPIN POPULATIONS
--------------------------------------------
   0 B :    0.044842    1.140255
   1 N :   -0.044842    0.859745
Sum of atomic charges         :   -0.0000000

LOEWDIN ATOMIC CHARGES AND SPIN POPULATIONS
-------------------------------------------
   0 B :   -0.012503    1.034392
   1 N :    0.012503    0.965608

  Mayer bond orders larger than 0.1
B(  0-B ,  1-N ) :   2.2952

FINAL SINGLE POINT ENERGY       -79.343756514301

DIPOLE MOMENT
-------------
                                X             Y             Z
Electronic contribution:     -0.02278       0.00000      -1.31210
Nuclear contribution   :      0.00000       0.00000       0.56854
                        -----------------------------------------
Total Dipole Moment    :     -0.02278       0.00000      -0.74356
                        -----------------------------------------
Magnitude (a.u.)       :      0.74391
Magnitude (Debye)      :      1.89088

Rotational constants in cm-1:     0.000000     1.573778     1.573778
Rotational constants in MHz :     0.000000 47180.691902 47180.691902

                             ****ORCA TERMINATED NORMALLY****
TOTAL RUN TIME: 0 days 0 hours 6 minutes 38 seconds 127 msec
