                         Program Version 4.1.2  - RELEASE  -
|  1> !uks pbe nori aug-pc-4 grid5 nofinalgrid verytightscf
|  2>
|  3> %maxcore 6000
|  4>
|  5> %pal nprocs 4 end
|  6>
|  7> %scf
|  8> 	efield 0.0, 0.0, -0.001
|  9> 	maxiter 200
| 10> end
| 11>
| 12> * xyz 0 3
| 13> B 0.0000 0.0000 0.0000
| 14> N 0.0000 0.0000 1.3250
| 15> *
| 16>
| 17>                          ****END OF INPUT****

CARTESIAN COORDINATES (ANGSTROEM)
---------------------------------
  B      0.000000    0.000000    0.000000
  N      0.000000    0.000000    1.325000

 Total Charge           Charge          ....    0
 Multiplicity           Mult            ....    3
 Number of Electrons    NEL             ....   12
 Basis Dimension        Dim             ....  290

ORBITAL ENERGIES
----------------
                 SPIN UP ORBITALS
  NO   OCC          E(Eh)            E(eV)
   0   1.0000     -14.041962      -382.1012
   1   1.0000      -6.604498      -179.7175
   2   1.0000      -0.772319       -21.0159
   3   1.0000      -0.363439        -9.8897
   4   1.0000      -0.334457        -9.1010
   5   1.0000      -0.289955        -7.8901
   6   1.0000      -0.282425        -7.6852
   7   0.0000      -0.081233        -2.2105
   8   0.0000      -0.057312        -1.5595
   9   0.0000      -0.002710        -0.0737
  10   0.0000       0.010414         0.2834
  11   0.0000       0.013910         0.3785

                 SPIN DOWN ORBITALS
  NO   OCC          E(Eh)            E(eV)
   0   1.0000     -14.025907      -381.6643
   1   1.0000      -6.589014      -179.2962
   2   1.0000      -0.721672       -19.6377
   3   1.0000      -0.317810        -8.6481
   4   1.0000      -0.272009        -7.4017
   5   0.0000      -0.247138        -6.7250
   6   0.0000      -0.187972        -5.1150
   7   0.0000      -0.021603        -0.5879
   8   0.0000      -0.005542        -0.1508
   9   0.0000       0.008061         0.2194

MULLIKEN ATOMIC CHARGES AND SPIN POPULATIONS
--------------------------------------------
   0 B :    0.050637    1.143344
   1 N :   -0.050637    0.856656
Sum of atomic charges         :   -0.0000000

LOEWDIN ATOMIC CHARGES AND SPIN POPULATIONS
-------------------------------------------
   0 B :   -0.010614    1.036317
   1 N :    0.010614    0.963683

  Mayer bond orders larger than 0.1
B(  0-B ,  1-N ) :   2.2887

FINAL SINGLE POINT ENERGY       -79.344503974482

DIPOLE MOMENT
-------------
                                X             Y             Z
Electronic contribution:      0.00000       0.00000      -1.34258
Nuclear contribution   :      0.00000       0.00000       0.56854
                        -----------------------------------------
Total Dipole Moment    :      0.00000       0.00000      -0.77405
                        -----------------------------------------
Magnitude (a.u.)       :      0.77405
Magnitude (Debye)      :      1.96747

Rotational constants in cm-1:     0.000000     1.573778     1.573778
Rotational constants in MHz :     0.000000 47180.691902 47180.691902

                             ****ORCA TERMINATED NORMALLY****
TOTAL RUN TIME: 0 days 0 hours 6 minutes 11 seconds 301 msec
