                         Program Version 4.1.2  - RELEASE  -
|  1> !uks pbe nori aug-pc-4 grid5 nofinalgrid verytightscf
|  2>
|  3> %maxcore 6000
|  4>
|  5> %pal nprocs 4 end
|  6>
|  7> %scf
|  8> 	efield 0.0, 0.0, 0.001
|  9> 	maxiter 200
| 10> end
| 11>
| 12> * xyz 0 3
| 13> B 0.0000 0.0000 0.0000
| 14> N 0.0000 0.0000 1.3250
| 15> *
| 16>
| 17>                          ****END OF INPUT****

CARTESIAN COORDINATES (ANGSTROEM)
---------------------------------
  B      0.000000    0.000000    0.000000
  N      0.000000    0.000000    1.325000

 Total Charge           Charge          ....    0
 Multiplicity           Mult            ....    3
 Number of Electrons    NEL             ....   12
 Basis Dimension        Dim             ....  290

ORBITAL ENERGIES
----------------
                 SPIN UP ORBITALS
  NO   OCC          E(Eh)            E(eV)
   0   1.0000     -14.043467      -382.1422
   1   1.0000      -6.605158      -179.7355
   2   1.0000      -0.773315       -21.0430
   3   1.0000      -0.364446        -9.9171
   4   1.0000      -0.335145        -9.1198
   5   1.0000      -0.290705        -7.9105
   6   1.0000      -0.284279        -7.7356
   7   0.0000      -0.083273        -2.2660
   8   0.0000      -0.059471        -1.6183
   9   0.0000      -0.008793        -0.2393
  10   0.0000       0.007237         0.1969
  11   0.0000       0.010111         0.2751

                 SPIN DOWN ORBITALS
  NO   OCC          E(Eh)            E(eV)
   0   1.0000     -14.027306      -381.7024
   1   1.0000      -6.589861      -179.3192
   2   1.0000      -0.722434       -19.6584
   3   1.0000      -0.317936        -8.6515
   4   1.0000      -0.272769        -7.4224
   5   0.0000      -0.247908        -6.7459
   6   0.0000      -0.191257        -5.2044
   7   0.0000      -0.024582        -0.6689
   8   0.0000      -0.008979        -0.2443
   9   0.0000       0.003690         0.1004

MULLIKEN ATOMIC CHARGES AND SPIN POPULATIONS
--------------------------------------------
   0 B :    0.039103    1.137197
   1 N :   -0.039103    0.862803
Sum of atomic charges         :   -0.0000000

LOEWDIN ATOMIC CHARGES AND SPIN POPULATIONS
-------------------------------------------
   0 B :   -0.014401    1.032434
   1 N :    0.014401    0.967566

  Mayer bond orders larger than 0.1
B(  0-B ,  1-N ) :   2.3017

FINAL SINGLE POINT ENERGY       -79.343016823741

DIPOLE MOMENT
-------------
                                X             Y             Z
Electronic contribution:      0.00000       0.00000      -1.28148
Nuclear contribution   :      0.00000       0.00000       0.56854
                        -----------------------------------------
Total Dipole Moment    :      0.00000       0.00000      -0.71294
                        -----------------------------------------
Magnitude (a.u.)       :      0.71294
Magnitude (Debye)      :      1.81215

Rotational constants in cm-1:     0.000000     1.573778     1.573778
Rotational constants in MHz :     0.000000 47180.691902 47180.691902

                             ****ORCA TERMINATED NORMALLY****
TOTAL RUN TIME: 0 days 0 hours 6 minutes 11 seconds 567 msec
