                         Program Version 4.1.2  - RELEASE  -
|  1> !uks pbe nori aug-pc-4 grid5 nofinalgrid verytightscf
|  2>
|  3> %maxcore 6000
|  4>
|  5> %pal nprocs 4 end
|  6>
|  7> %scf
|  8> 	efield 0.0, 0.0, 0.001
|  9> 	maxiter 200
| 10> end
| 11>
| 12> * xyz 0 2
| 13> H 0.000000 0.000000 0.000000
| 14> F 0.000000 0.000000 0.927729
| 15> O 0.169084 0.000000 -1.803099
| 16> H 1.103782 0.000000 -2.068116
| 17> *
| 18>
| 19>                          ****END OF INPUT****

CARTESIAN COORDINATES (ANGSTROEM)
---------------------------------
  H      0.000000    0.000000    0.000000
  F      0.000000    0.000000    0.927729
  O      0.169084    0.000000   -1.803099
  H      1.103782    0.000000   -2.068116

 Total Charge           Charge          ....    0
 Multiplicity           Mult            ....    2
 Number of Electrons    NEL             ....   19
 Basis Dimension        Dim             ....  466

ORBITAL ENERGIES
----------------
                 SPIN UP ORBITALS
  NO   OCC          E(Eh)            E(eV)
   0   1.0000     -24.221626      -659.1040
   1   1.0000     -18.874723      -513.6073
   2   1.0000      -1.072919       -29.1956
   3   1.0000      -0.981324       -26.7032
   4   1.0000      -0.488644       -13.2967
   5   1.0000      -0.456616       -12.4252
   6   1.0000      -0.411692       -11.2027
   7   1.0000      -0.343012        -9.3338
   8   1.0000      -0.328502        -8.9390
   9   1.0000      -0.326805        -8.8928
  10   0.0000      -0.051304        -1.3961
  11   0.0000       0.010208         0.2778
  12   0.0000       0.015184         0.4132
  13   0.0000       0.017529         0.4770
  14   0.0000       0.026642         0.7250

                 SPIN DOWN ORBITALS
  NO   OCC          E(Eh)            E(eV)
   0   1.0000     -24.221293      -659.0949
   1   1.0000     -18.851176      -512.9666
   2   1.0000      -1.072153       -29.1748
   3   1.0000      -0.924214       -25.1491
   4   1.0000      -0.478479       -13.0201
   5   1.0000      -0.443385       -12.0651
   6   1.0000      -0.328604        -8.9418
   7   1.0000      -0.327597        -8.9144
   8   1.0000      -0.319247        -8.6871
   9   0.0000      -0.281475        -7.6593
  10   0.0000      -0.045683        -1.2431
  11   0.0000       0.011036         0.3003
  12   0.0000       0.015733         0.4281
  13   0.0000       0.023956         0.6519

MULLIKEN ATOMIC CHARGES AND SPIN POPULATIONS
--------------------------------------------
   0 H :    0.277909   -0.016269
   1 F :   -0.299542    0.017563
   2 O :   -0.195885    0.991795
   3 H :    0.217519    0.006911
Sum of atomic charges         :   -0.0000000

LOEWDIN ATOMIC CHARGES AND SPIN POPULATIONS
-------------------------------------------
   0 H :   -1.212645    0.034182
   1 F :    0.979790    0.022488
   2 O :    0.994441    0.781839
   3 H :   -0.761586    0.161491

  Mayer bond orders larger than 0.1
B(  0-H ,  1-F ) :   0.9166 B(  0-H ,  2-O ) :   0.1233 B(  1-F ,  2-O ) :  -0.1013
B(  2-O ,  3-H ) :   1.0247

FINAL SINGLE POINT ENERGY      -176.102505706912

DIPOLE MOMENT
-------------
                                X             Y             Z
Electronic contribution:     -0.29509       0.00000       1.39245
Nuclear contribution   :      0.93855       0.00000      -2.47969
                        -----------------------------------------
Total Dipole Moment    :      0.64345       0.00000      -1.08723
                        -----------------------------------------
Magnitude (a.u.)       :      1.26337
Magnitude (Debye)      :      3.21124

Rotational constants in cm-1:    21.356998     0.246472     0.243660
Rotational constants in MHz : 640266.678212  7389.040107  7304.739279

                             ****ORCA TERMINATED NORMALLY****
TOTAL RUN TIME: 0 days 0 hours 18 minutes 8 seconds 268 msec
