                         Program Version 4.1.2  - RELEASE  -
|  1> !uks pbe nori aug-pc-4 grid5 nofinalgrid verytightscf
|  2>
|  3> %maxcore 6000
|  4>
|  5> %pal nprocs 4 end
|  6>
|  7> %scf
|  8> 	efield 0.0, 0.001, 0.0
|  9> 	maxiter 200
| 10> end
| 11>
| 12> * xyz 0 2
| 13> H 0.000000 0.000000 0.000000
| 14> F 0.000000 0.000000 0.927729
| 15> O 0.169084 0.000000 -1.803099
| 16> H 1.103782 0.000000 -2.068116
| 17> *
| 18>
| 19>                          ****END OF INPUT****

CARTESIAN COORDINATES (ANGSTROEM)
---------------------------------
  H      0.000000    0.000000    0.000000
  F      0.000000    0.000000    0.927729
  O      0.169084    0.000000   -1.803099
  H      1.103782    0.000000   -2.068116

 Total Charge           Charge          ....    0
 Multiplicity           Mult            ....    2
 Number of Electrons    NEL             ....   19
 Basis Dimension        Dim             ....  466

ORBITAL ENERGIES
----------------
                 SPIN UP ORBITALS
  NO   OCC          E(Eh)            E(eV)
   0   1.0000     -24.222694      -659.1330
   1   1.0000     -18.872980      -513.5599
   2   1.0000      -1.074070       -29.2269
   3   1.0000      -0.979501       -26.6536
   4   1.0000      -0.487952       -13.2778
   5   1.0000      -0.456622       -12.4253
   6   1.0000      -0.409961       -11.1556
   7   1.0000      -0.341494        -9.2925
   8   1.0000      -0.329732        -8.9725
   9   1.0000      -0.328036        -8.9263
  10   0.0000      -0.048526        -1.3205
  11   0.0000       0.009554         0.2600
  12   0.0000       0.018700         0.5088
  13   0.0000       0.020718         0.5638
  14   0.0000       0.030519         0.8305

                 SPIN DOWN ORBITALS
  NO   OCC          E(Eh)            E(eV)
   0   1.0000     -24.222411      -659.1253
   1   1.0000     -18.849384      -512.9178
   2   1.0000      -1.073415       -29.2091
   3   1.0000      -0.922250       -25.0957
   4   1.0000      -0.478790       -13.0285
   5   1.0000      -0.442422       -12.0389
   6   1.0000      -0.329668        -8.9707
   7   1.0000      -0.329012        -8.9529
   8   1.0000      -0.317859        -8.6494
   9   0.0000      -0.279459        -7.6045
  10   0.0000      -0.042804        -1.1648
  11   0.0000       0.010361         0.2819
  12   0.0000       0.020313         0.5527
  13   0.0000       0.025228         0.6865

MULLIKEN ATOMIC CHARGES AND SPIN POPULATIONS
--------------------------------------------
   0 H :    0.278756   -0.016307
   1 F :   -0.302956    0.015875
   2 O :   -0.194295    0.993605
   3 H :    0.218494    0.006828
Sum of atomic charges         :   -0.0000000

LOEWDIN ATOMIC CHARGES AND SPIN POPULATIONS
-------------------------------------------
   0 H :   -1.213056    0.033865
   1 F :    0.977747    0.021079
   2 O :    0.995768    0.783242
   3 H :   -0.760459    0.161814

  Mayer bond orders larger than 0.1
B(  0-H ,  1-F ) :   0.9139 B(  0-H ,  2-O ) :   0.1255 B(  1-F ,  2-O ) :  -0.1038
B(  2-O ,  3-H ) :   1.0239

FINAL SINGLE POINT ENERGY      -176.103611560586

DIPOLE MOMENT
-------------
                                X             Y             Z
Electronic contribution:     -0.29347       0.01220       1.36765
Nuclear contribution   :      0.93855       0.00000      -2.47969
                        -----------------------------------------
Total Dipole Moment    :      0.64507       0.01220      -1.11204
                        -----------------------------------------
Magnitude (a.u.)       :      1.28565
Magnitude (Debye)      :      3.26787

Rotational constants in cm-1:    21.356998     0.246472     0.243660
Rotational constants in MHz : 640266.678212  7389.040107  7304.739279

                             ****ORCA TERMINATED NORMALLY****
TOTAL RUN TIME: 0 days 0 hours 25 minutes 26 seconds 243 msec
