                         Program Version 4.1.2  - RELEASE  -
|  1> !uks pbe nori aug-pc-4 grid5 nofinalgrid verytightscf
|  2>
|  3> %maxcore 6000
|  4>
|  5> %pal nprocs 4 end
|  6>
|  7> %scf
|  8> 	efield 0.0, 0.0, 0.0
|  9> 	maxiter 200
| 10> end
| 11>
| 12> * xyz 0 2
| 13> H 0.000000 0.000000 0.000000
| 14> F 0.000000 0.000000 0.927729
| 15> O 0.169084 0.000000 -1.803099
| 16> H 1.103782 0.000000 -2.068116
| 17> *
| 18>
| 19>                          ****END OF INPUT****

CARTESIAN COORDINATES (ANGSTROEM)
---------------------------------
  H      0.000000    0.000000    0.000000
  F      0.000000    0.000000    0.927729
  O      0.169084    0.000000   -1.803099
  H      1.103782    0.000000   -2.068116

 Total Charge           Charge          ....    0
 Multiplicity           Mult            ....    2
 Number of Electrons    NEL             ....   19
 Basis Dimension        Dim             ....  466

ORBITAL ENERGIES
----------------
                 SPIN UP ORBITALS
  NO   OCC          E(Eh)            E(eV)
   0   1.0000     -24.222688      -659.1329
   1   1.0000     -18.872976      -513.5598
   2   1.0000      -1.074066       -29.2268
   3   1.0000      -0.979499       -26.6535
   4   1.0000      -0.487949       -13.2778
   5   1.0000      -0.456619       -12.4252
   6   1.0000      -0.409959       -11.1556
   7   1.0000      -0.341491        -9.2925
   8   1.0000      -0.329728        -8.9724
   9   1.0000      -0.328032        -8.9262
  10   0.0000      -0.048437        -1.3180
  11   0.0000       0.010017         0.2726
  12   0.0000       0.020084         0.5465
  13   0.0000       0.020098         0.5469
  14   0.0000       0.029884         0.8132

                 SPIN DOWN ORBITALS
  NO   OCC          E(Eh)            E(eV)
   0   1.0000     -24.222405      -659.1252
   1   1.0000     -18.849381      -512.9177
   2   1.0000      -1.073411       -29.2090
   3   1.0000      -0.922248       -25.0956
   4   1.0000      -0.478786       -13.0284
   5   1.0000      -0.442419       -12.0388
   6   1.0000      -0.329664        -8.9706
   7   1.0000      -0.329008        -8.9528
   8   1.0000      -0.317857        -8.6493
   9   0.0000      -0.279456        -7.6044
  10   0.0000      -0.042715        -1.1623
  11   0.0000       0.010749         0.2925
  12   0.0000       0.020673         0.5625
  13   0.0000       0.026430         0.7192

MULLIKEN ATOMIC CHARGES AND SPIN POPULATIONS
--------------------------------------------
   0 H :    0.278769   -0.016301
   1 F :   -0.302963    0.015867
   2 O :   -0.194303    0.993605
   3 H :    0.218497    0.006829
Sum of atomic charges         :   -0.0000000

LOEWDIN ATOMIC CHARGES AND SPIN POPULATIONS
-------------------------------------------
   0 H :   -1.213055    0.033864
   1 F :    0.977744    0.021078
   2 O :    0.995768    0.783244
   3 H :   -0.760458    0.161814

  Mayer bond orders larger than 0.1
B(  0-H ,  1-F ) :   0.9139 B(  0-H ,  2-O ) :   0.1255 B(  1-F ,  2-O ) :  -0.1038
B(  2-O ,  3-H ) :   1.0239

FINAL SINGLE POINT ENERGY      -176.103605459519

DIPOLE MOMENT
-------------
                                X             Y             Z
Electronic contribution:     -0.29347       0.00000       1.36764
Nuclear contribution   :      0.93855       0.00000      -2.47969
                        -----------------------------------------
Total Dipole Moment    :      0.64507       0.00000      -1.11205
                        -----------------------------------------
Magnitude (a.u.)       :      1.28560
Magnitude (Debye)      :      3.26774

Rotational constants in cm-1:    21.356998     0.246472     0.243660
Rotational constants in MHz : 640266.678212  7389.040107  7304.739279

                             ****ORCA TERMINATED NORMALLY****
TOTAL RUN TIME: 0 days 0 hours 18 minutes 7 seconds 728 msec
