                         Program Version 4.1.2  - RELEASE  -
|  1> !uks pbe nori aug-pc-4 grid5 nofinalgrid verytightscf
|  2>
|  3> %maxcore 6000
|  4>
|  5> %pal nprocs 4 end
|  6>
|  7> %scf
|  8> 	efield 0.0, 0.0, -0.001
|  9> 	maxiter 200
| 10> end
| 11>
| 12> * xyz 0 2
| 13> H 0.000000 0.000000 0.000000
| 14> F 0.000000 0.000000 0.927729
| 15> O 0.169084 0.000000 -1.803099
| 16> H 1.103782 0.000000 -2.068116
| 17> *
| 18>
| 19>                          ****END OF INPUT****

CARTESIAN COORDINATES (ANGSTROEM)
---------------------------------
  H      0.000000    0.000000    0.000000
  F      0.000000    0.000000    0.927729
  O      0.169084    0.000000   -1.803099
  H      1.103782    0.000000   -2.068116

 Total Charge           Charge          ....    0
 Multiplicity           Mult            ....    2
 Number of Electrons    NEL             ....   19
 Basis Dimension        Dim             ....  466

ORBITAL ENERGIES
----------------
                 SPIN UP ORBITALS
  NO   OCC          E(Eh)            E(eV)
   0   1.0000     -24.223864      -659.1648
   1   1.0000     -18.871159      -513.5103
   2   1.0000      -1.075313       -29.2608
   3   1.0000      -0.977606       -26.6020
   4   1.0000      -0.487405       -13.2630
   5   1.0000      -0.456500       -12.4220
   6   1.0000      -0.408147       -11.1062
   7   1.0000      -0.340018        -9.2524
   8   1.0000      -0.331067        -9.0088
   9   1.0000      -0.329249        -8.9593
  10   0.0000      -0.045750        -1.2449
  11   0.0000       0.008590         0.2337
  12   0.0000       0.022191         0.6039
  13   0.0000       0.023366         0.6358
  14   0.0000       0.034132         0.9288

                 SPIN DOWN ORBITALS
  NO   OCC          E(Eh)            E(eV)
   0   1.0000     -24.223623      -659.1583
   1   1.0000     -18.847523      -512.8672
   2   1.0000      -1.074751       -29.2455
   3   1.0000      -0.920236       -25.0409
   4   1.0000      -0.479252       -13.0411
   5   1.0000      -0.441327       -12.0091
   6   1.0000      -0.330945        -9.0055
   7   1.0000      -0.330502        -8.9934
   8   1.0000      -0.316282        -8.6065
   9   0.0000      -0.277403        -7.5485
  10   0.0000      -0.039976        -1.0878
  11   0.0000       0.009243         0.2515
  12   0.0000       0.024118         0.6563
  13   0.0000       0.028242         0.7685

MULLIKEN ATOMIC CHARGES AND SPIN POPULATIONS
--------------------------------------------
   0 H :    0.279611   -0.016363
   1 F :   -0.306089    0.014483
   2 O :   -0.192964    0.995132
   3 H :    0.219442    0.006748
Sum of atomic charges         :   -0.0000000

LOEWDIN ATOMIC CHARGES AND SPIN POPULATIONS
-------------------------------------------
   0 H :   -1.213414    0.033586
   1 F :    0.975819    0.019902
   2 O :    0.996992    0.784427
   3 H :   -0.759398    0.162085

  Mayer bond orders larger than 0.1
B(  0-H ,  1-F ) :   0.9111 B(  0-H ,  2-O ) :   0.1278 B(  1-F ,  2-O ) :  -0.1058
B(  2-O ,  3-H ) :   1.0230

FINAL SINGLE POINT ENERGY      -176.104729402290

DIPOLE MOMENT
-------------
                                X             Y             Z
Electronic contribution:     -0.29199       0.00000       1.34403
Nuclear contribution   :      0.93855       0.00000      -2.47969
                        -----------------------------------------
Total Dipole Moment    :      0.64656       0.00000      -1.13565
                        -----------------------------------------
Magnitude (a.u.)       :      1.30681
Magnitude (Debye)      :      3.32164

Rotational constants in cm-1:    21.356998     0.246472     0.243660
Rotational constants in MHz : 640266.678212  7389.040107  7304.739279

                             ****ORCA TERMINATED NORMALLY****
TOTAL RUN TIME: 0 days 0 hours 17 minutes 45 seconds 375 msec
