                         Program Version 4.1.2  - RELEASE  -
|  1> !uks pbe nori aug-pc-4 grid5 nofinalgrid verytightscf
|  2>
|  3> %maxcore 6000
|  4>
|  5> %pal nprocs 4 end
|  6>
|  7> %scf
|  8> 	efield 0.001, 0.0, 0.0
|  9> 	maxiter 200
| 10> end
| 11>
| 12> * xyz 0 2
| 13> H 0.000000 0.000000 0.000000
| 14> F 0.000000 0.000000 0.927729
| 15> O 0.169084 0.000000 -1.803099
| 16> H 1.103782 0.000000 -2.068116
| 17> *
| 18>
| 19>                          ****END OF INPUT****

CARTESIAN COORDINATES (ANGSTROEM)
---------------------------------
  H      0.000000    0.000000    0.000000
  F      0.000000    0.000000    0.927729
  O      0.169084    0.000000   -1.803099
  H      1.103782    0.000000   -2.068116

 Total Charge           Charge          ....    0
 Multiplicity           Mult            ....    2
 Number of Electrons    NEL             ....   19
 Basis Dimension        Dim             ....  466

ORBITAL ENERGIES
----------------
                 SPIN UP ORBITALS
  NO   OCC          E(Eh)            E(eV)
   0   1.0000     -24.222777      -659.1353
   1   1.0000     -18.872577      -513.5489
   2   1.0000      -1.074166       -29.2295
   3   1.0000      -0.979067       -26.6418
   4   1.0000      -0.487808       -13.2739
   5   1.0000      -0.456548       -12.4233
   6   1.0000      -0.409695       -11.1484
   7   1.0000      -0.341253        -9.2860
   8   1.0000      -0.329827        -8.9751
   9   1.0000      -0.328145        -8.9293
  10   0.0000      -0.046438        -1.2637
  11   0.0000       0.009001         0.2449
  12   0.0000       0.019126         0.5204
  13   0.0000       0.020304         0.5525
  14   0.0000       0.034926         0.9504

                 SPIN DOWN ORBITALS
  NO   OCC          E(Eh)            E(eV)
   0   1.0000     -24.222499      -659.1277
   1   1.0000     -18.848978      -512.9068
   2   1.0000      -1.073523       -29.2120
   3   1.0000      -0.921790       -25.0832
   4   1.0000      -0.478775       -13.0281
   5   1.0000      -0.442237       -12.0339
   6   1.0000      -0.329731        -8.9724
   7   1.0000      -0.329126        -8.9560
   8   1.0000      -0.317661        -8.6440
   9   0.0000      -0.279164        -7.5964
  10   0.0000      -0.040586        -1.1044
  11   0.0000       0.009783         0.2662
  12   0.0000       0.019599         0.5333
  13   0.0000       0.026454         0.7198

MULLIKEN ATOMIC CHARGES AND SPIN POPULATIONS
--------------------------------------------
   0 H :    0.278562   -0.016292
   1 F :   -0.303184    0.015660
   2 O :   -0.196054    0.993825
   3 H :    0.220676    0.006807
Sum of atomic charges         :   -0.0000000

LOEWDIN ATOMIC CHARGES AND SPIN POPULATIONS
-------------------------------------------
   0 H :   -1.213216    0.033843
   1 F :    0.977520    0.020935
   2 O :    0.995342    0.783405
   3 H :   -0.759645    0.161818

  Mayer bond orders larger than 0.1
B(  0-H ,  1-F ) :   0.9141 B(  0-H ,  2-O ) :   0.1256 B(  1-F ,  2-O ) :  -0.1036
B(  2-O ,  3-H ) :   1.0216

FINAL SINGLE POINT ENERGY      -176.104257667537

DIPOLE MOMENT
-------------
                                X             Y             Z
Electronic contribution:     -0.27921       0.00000       1.36610
Nuclear contribution   :      0.93855       0.00000      -2.47969
                        -----------------------------------------
Total Dipole Moment    :      0.65934       0.00000      -1.11359
                        -----------------------------------------
Magnitude (a.u.)       :      1.29414
Magnitude (Debye)      :      3.28945

Rotational constants in cm-1:    21.356998     0.246472     0.243660
Rotational constants in MHz : 640266.678212  7389.040107  7304.739279

                             ****ORCA TERMINATED NORMALLY****
TOTAL RUN TIME: 0 days 0 hours 17 minutes 46 seconds 884 msec
