                         Program Version 4.1.2  - RELEASE  -
|  1> !uks pbe nori aug-pc-4 grid5 nofinalgrid verytightscf
|  2>
|  3> %maxcore 6000
|  4>
|  5> %pal nprocs 4 end
|  6>
|  7> %scf
|  8> 	efield -0.001, 0.0, 0.0
|  9> 	maxiter 200
| 10> end
| 11>
| 12> * xyz 0 2
| 13> H 0.000000 0.000000 0.000000
| 14> F 0.000000 0.000000 0.927729
| 15> O 0.169084 0.000000 -1.803099
| 16> H 1.103782 0.000000 -2.068116
| 17> *
| 18>
| 19>                          ****END OF INPUT****

CARTESIAN COORDINATES (ANGSTROEM)
---------------------------------
  H      0.000000    0.000000    0.000000
  F      0.000000    0.000000    0.927729
  O      0.169084    0.000000   -1.803099
  H      1.103782    0.000000   -2.068116

 Total Charge           Charge          ....    0
 Multiplicity           Mult            ....    2
 Number of Electrons    NEL             ....   19
 Basis Dimension        Dim             ....  466

ORBITAL ENERGIES
----------------
                 SPIN UP ORBITALS
  NO   OCC          E(Eh)            E(eV)
   0   1.0000     -24.222610      -659.1307
   1   1.0000     -18.873383      -513.5709
   2   1.0000      -1.073974       -29.2243
   3   1.0000      -0.979936       -26.6654
   4   1.0000      -0.488099       -13.2819
   5   1.0000      -0.456694       -12.4273
   6   1.0000      -0.410228       -11.1629
   7   1.0000      -0.341736        -9.2991
   8   1.0000      -0.329637        -8.9699
   9   1.0000      -0.327928        -8.9234
  10   0.0000      -0.050628        -1.3776
  11   0.0000       0.009967         0.2712
  12   0.0000       0.019633         0.5342
  13   0.0000       0.020388         0.5548
  14   0.0000       0.025010         0.6806

                 SPIN DOWN ORBITALS
  NO   OCC          E(Eh)            E(eV)
   0   1.0000     -24.222322      -659.1229
   1   1.0000     -18.849791      -512.9289
   2   1.0000      -1.073307       -29.2062
   3   1.0000      -0.922712       -25.1083
   4   1.0000      -0.478807       -13.0290
   5   1.0000      -0.442607       -12.0440
   6   1.0000      -0.329609        -8.9691
   7   1.0000      -0.328897        -8.9497
   8   1.0000      -0.318055        -8.6547
   9   0.0000      -0.279753        -7.6125
  10   0.0000      -0.045071        -1.2264
  11   0.0000       0.010625         0.2891
  12   0.0000       0.021158         0.5757
  13   0.0000       0.026115         0.7106

MULLIKEN ATOMIC CHARGES AND SPIN POPULATIONS
--------------------------------------------
   0 H :    0.278962   -0.016310
   1 F :   -0.302729    0.016079
   2 O :   -0.192542    0.993383
   3 H :    0.216309    0.006848
Sum of atomic charges         :   -0.0000000

LOEWDIN ATOMIC CHARGES AND SPIN POPULATIONS
-------------------------------------------
   0 H :   -1.212896    0.033886
   1 F :    0.977975    0.021224
   2 O :    0.996196    0.783081
   3 H :   -0.761275    0.161809

  Mayer bond orders larger than 0.1
B(  0-H ,  1-F ) :   0.9136 B(  0-H ,  2-O ) :   0.1254 B(  1-F ,  2-O ) :  -0.1041
B(  2-O ,  3-H ) :   1.0262

FINAL SINGLE POINT ENERGY      -176.102967526287

DIPOLE MOMENT
-------------
                                X             Y             Z
Electronic contribution:     -0.30776       0.00000       1.36919
Nuclear contribution   :      0.93855       0.00000      -2.47969
                        -----------------------------------------
Total Dipole Moment    :      0.63079       0.00000      -1.11049
                        -----------------------------------------
Magnitude (a.u.)       :      1.27714
Magnitude (Debye)      :      3.24623

Rotational constants in cm-1:    21.356998     0.246472     0.243660
Rotational constants in MHz : 640266.678212  7389.040107  7304.739279

                             ****ORCA TERMINATED NORMALLY****
TOTAL RUN TIME: 0 days 0 hours 17 minutes 43 seconds 479 msec
