                         Program Version 4.1.2  - RELEASE  -
|  1> !uks pbe nori aug-pc-4 grid5 nofinalgrid verytightscf
|  2>
|  3> %maxcore 6000
|  4>
|  5> %pal nprocs 4 end
|  6>
|  7> %scf
|  8> 	efield 0.0, -0.001, 0.0
|  9> 	maxiter 200
| 10> end
| 11>
| 12> * xyz 0 2
| 13> O 0.0553 -0.6132 0.0000
| 14> O 0.0553 0.7198 0.0000
| 15> H -0.8853 -0.8528 0.0000
| 16> *
| 17>
| 18>                          ****END OF INPUT****

CARTESIAN COORDINATES (ANGSTROEM)
---------------------------------
  O      0.055300   -0.613200    0.000000
  O      0.055300    0.719800    0.000000
  H     -0.885300   -0.852800    0.000000

 Total Charge           Charge          ....    0
 Multiplicity           Mult            ....    2
 Number of Electrons    NEL             ....   17
 Basis Dimension        Dim             ....  378

ORBITAL ENERGIES
----------------
                 SPIN UP ORBITALS
  NO   OCC          E(Eh)            E(eV)
   0   1.0000     -18.882922      -513.8304
   1   1.0000     -18.832950      -512.4706
   2   1.0000      -1.111378       -30.2421
   3   1.0000      -0.799429       -21.7536
   4   1.0000      -0.516817       -14.0633
   5   1.0000      -0.438264       -11.9258
   6   1.0000      -0.437508       -11.9052
   7   1.0000      -0.253932        -6.9098
   8   1.0000      -0.247410        -6.7324
   9   0.0000      -0.037639        -1.0242
  10   0.0000      -0.001121        -0.0305
  11   0.0000       0.024265         0.6603
  12   0.0000       0.027398         0.7455
  13   0.0000       0.039258         1.0683

                 SPIN DOWN ORBITALS
  NO   OCC          E(Eh)            E(eV)
   0   1.0000     -18.874901      -513.6122
   1   1.0000     -18.815359      -511.9919
   2   1.0000      -1.090569       -29.6759
   3   1.0000      -0.768684       -20.9170
   4   1.0000      -0.503684       -13.7059
   5   1.0000      -0.424726       -11.5574
   6   1.0000      -0.387180       -10.5357
   7   1.0000      -0.232268        -6.3203
   8   0.0000      -0.177771        -4.8374
   9   0.0000      -0.035083        -0.9547
  10   0.0000       0.005743         0.1563
  11   0.0000       0.025035         0.6812
  12   0.0000       0.030325         0.8252

MULLIKEN ATOMIC CHARGES AND SPIN POPULATIONS
--------------------------------------------
   0 O :   -0.021430    0.279786
   1 O :   -0.182232    0.712168
   2 H :    0.203662    0.008046
Sum of atomic charges         :    0.0000000

LOEWDIN ATOMIC CHARGES AND SPIN POPULATIONS
-------------------------------------------
   0 O :    0.594340    0.315286
   1 O :    0.243887    0.632072
   2 H :   -0.838227    0.052641

  Mayer bond orders larger than 0.1
B(  0-O ,  1-O ) :   1.3424 B(  0-O ,  2-H ) :   0.9752

FINAL SINGLE POINT ENERGY      -150.842045972476

DIPOLE MOMENT
-------------
                                X             Y             Z
Electronic contribution:      0.21496       0.21289      -0.00000
Nuclear contribution   :     -0.85465      -0.82330       0.00000
                        -----------------------------------------
Total Dipole Moment    :     -0.63969      -0.61041      -0.00000
                        -----------------------------------------
Magnitude (a.u.)       :      0.88420
Magnitude (Debye)      :      2.24746

Rotational constants in cm-1:    20.665858     1.118966     1.061491
Rotational constants in MHz : 619546.847976 33545.749135 31822.689817

                             ****ORCA TERMINATED NORMALLY****
TOTAL RUN TIME: 0 days 0 hours 12 minutes 2 seconds 580 msec
