                         Program Version 4.1.2  - RELEASE  -
|  1> !uks pbe nori aug-pc-4 grid5 nofinalgrid verytightscf
|  2>
|  3> %maxcore 6000
|  4>
|  5> %pal nprocs 4 end
|  6>
|  7> %scf
|  8> 	efield 0.001, 0.0, 0.0
|  9> 	maxiter 200
| 10> end
| 11>
| 12> * xyz 0 2
| 13> O 0.0553 -0.6132 0.0000
| 14> O 0.0553 0.7198 0.0000
| 15> H -0.8853 -0.8528 0.0000
| 16> *
| 17>
| 18>                          ****END OF INPUT****

CARTESIAN COORDINATES (ANGSTROEM)
---------------------------------
  O      0.055300   -0.613200    0.000000
  O      0.055300    0.719800    0.000000
  H     -0.885300   -0.852800    0.000000

 Total Charge           Charge          ....    0
 Multiplicity           Mult            ....    2
 Number of Electrons    NEL             ....   17
 Basis Dimension        Dim             ....  378

ORBITAL ENERGIES
----------------
                 SPIN UP ORBITALS
  NO   OCC          E(Eh)            E(eV)
   0   1.0000     -18.883248      -513.8393
   1   1.0000     -18.832940      -512.4704
   2   1.0000      -1.111605       -30.2483
   3   1.0000      -0.799702       -21.7610
   4   1.0000      -0.517071       -14.0702
   5   1.0000      -0.438371       -11.9287
   6   1.0000      -0.437561       -11.9066
   7   1.0000      -0.253967        -6.9108
   8   1.0000      -0.247232        -6.7275
   9   0.0000      -0.041886        -1.1398
  10   0.0000       0.000119         0.0032
  11   0.0000       0.025768         0.7012
  12   0.0000       0.026569         0.7230
  13   0.0000       0.030977         0.8429

                 SPIN DOWN ORBITALS
  NO   OCC          E(Eh)            E(eV)
   0   1.0000     -18.875296      -513.6229
   1   1.0000     -18.815276      -511.9897
   2   1.0000      -1.090840       -29.6833
   3   1.0000      -0.768934       -20.9238
   4   1.0000      -0.503937       -13.7128
   5   1.0000      -0.424760       -11.5583
   6   1.0000      -0.387440       -10.5428
   7   1.0000      -0.232037        -6.3140
   8   0.0000      -0.177563        -4.8317
   9   0.0000      -0.039475        -1.0742
  10   0.0000       0.007248         0.1972
  11   0.0000       0.026475         0.7204
  12   0.0000       0.029407         0.8002

MULLIKEN ATOMIC CHARGES AND SPIN POPULATIONS
--------------------------------------------
   0 O :   -0.022479    0.277079
   1 O :   -0.177356    0.714797
   2 H :    0.199835    0.008124
Sum of atomic charges         :    0.0000000

LOEWDIN ATOMIC CHARGES AND SPIN POPULATIONS
-------------------------------------------
   0 O :    0.593826    0.313553
   1 O :    0.245801    0.634101
   2 H :   -0.839626    0.052346

  Mayer bond orders larger than 0.1
B(  0-O ,  1-O ) :   1.3417 B(  0-O ,  2-H ) :   0.9779

FINAL SINGLE POINT ENERGY      -150.840813466675

DIPOLE MOMENT
-------------
                                X             Y             Z
Electronic contribution:      0.22946       0.23360      -0.00000
Nuclear contribution   :     -0.85465      -0.82330       0.00000
                        -----------------------------------------
Total Dipole Moment    :     -0.62519      -0.58971      -0.00000
                        -----------------------------------------
Magnitude (a.u.)       :      0.85943
Magnitude (Debye)      :      2.18449

Rotational constants in cm-1:    20.665858     1.118966     1.061491
Rotational constants in MHz : 619546.847976 33545.749135 31822.689817

                             ****ORCA TERMINATED NORMALLY****
TOTAL RUN TIME: 0 days 0 hours 11 minutes 32 seconds 403 msec
