                         Program Version 4.1.2  - RELEASE  -
|  1> !uks pbe nori aug-pc-4 grid5 nofinalgrid verytightscf
|  2>
|  3> %maxcore 6000
|  4>
|  5> %pal nprocs 4 end
|  6>
|  7> %scf
|  8> 	efield 0.0, 0.001, 0.0
|  9> 	maxiter 200
| 10> end
| 11>
| 12> * xyz 0 2
| 13> O 0.0553 -0.6132 0.0000
| 14> O 0.0553 0.7198 0.0000
| 15> H -0.8853 -0.8528 0.0000
| 16> *
| 17>
| 18>                          ****END OF INPUT****

CARTESIAN COORDINATES (ANGSTROEM)
---------------------------------
  O      0.055300   -0.613200    0.000000
  O      0.055300    0.719800    0.000000
  H     -0.885300   -0.852800    0.000000

 Total Charge           Charge          ....    0
 Multiplicity           Mult            ....    2
 Number of Electrons    NEL             ....   17
 Basis Dimension        Dim             ....  378

ORBITAL ENERGIES
----------------
                 SPIN UP ORBITALS
  NO   OCC          E(Eh)            E(eV)
   0   1.0000     -18.883099      -513.8353
   1   1.0000     -18.832706      -512.4640
   2   1.0000      -1.111472       -30.2447
   3   1.0000      -0.799580       -21.7577
   4   1.0000      -0.516846       -14.0641
   5   1.0000      -0.438288       -11.9264
   6   1.0000      -0.437731       -11.9113
   7   1.0000      -0.253814        -6.9066
   8   1.0000      -0.246864        -6.7175
   9   0.0000      -0.041590        -1.1317
  10   0.0000       0.002720         0.0740
  11   0.0000       0.020735         0.5642
  12   0.0000       0.025640         0.6977
  13   0.0000       0.030127         0.8198

                 SPIN DOWN ORBITALS
  NO   OCC          E(Eh)            E(eV)
   0   1.0000     -18.875209      -513.6205
   1   1.0000     -18.814980      -511.9816
   2   1.0000      -1.090739       -29.6805
   3   1.0000      -0.768786       -20.9197
   4   1.0000      -0.503732       -13.7072
   5   1.0000      -0.424910       -11.5624
   6   1.0000      -0.387494       -10.5443
   7   1.0000      -0.231624        -6.3028
   8   0.0000      -0.177199        -4.8218
   9   0.0000      -0.039018        -1.0617
  10   0.0000       0.010196         0.2775
  11   0.0000       0.021380         0.5818
  12   0.0000       0.028358         0.7717

MULLIKEN ATOMIC CHARGES AND SPIN POPULATIONS
--------------------------------------------
   0 O :   -0.026098    0.274796
   1 O :   -0.174734    0.717105
   2 H :    0.200831    0.008099
Sum of atomic charges         :    0.0000000

LOEWDIN ATOMIC CHARGES AND SPIN POPULATIONS
-------------------------------------------
   0 O :    0.592461    0.312054
   1 O :    0.247088    0.635834
   2 H :   -0.839549    0.052112

  Mayer bond orders larger than 0.1
B(  0-O ,  1-O ) :   1.3410 B(  0-O ,  2-H ) :   0.9758

FINAL SINGLE POINT ENERGY      -150.840863457263

DIPOLE MOMENT
-------------
                                X             Y             Z
Electronic contribution:      0.21806       0.25120      -0.00000
Nuclear contribution   :     -0.85465      -0.82330       0.00000
                        -----------------------------------------
Total Dipole Moment    :     -0.63659      -0.57211      -0.00000
                        -----------------------------------------
Magnitude (a.u.)       :      0.85590
Magnitude (Debye)      :      2.17551

Rotational constants in cm-1:    20.665858     1.118966     1.061491
Rotational constants in MHz : 619546.847976 33545.749135 31822.689817

                             ****ORCA TERMINATED NORMALLY****
TOTAL RUN TIME: 0 days 0 hours 11 minutes 2 seconds 8 msec
