                         Program Version 4.1.2  - RELEASE  -
|  1> !uks pbe nori aug-pc-4 grid5 nofinalgrid verytightscf
|  2>
|  3> %maxcore 6000
|  4>
|  5> %pal nprocs 4 end
|  6>
|  7> %scf
|  8> 	efield 0.0, 0.0, 0.001
|  9> 	maxiter 200
| 10> end
| 11>
| 12> * xyz 0 2
| 13> O 0.0553 -0.6132 0.0000
| 14> O 0.0553 0.7198 0.0000
| 15> H -0.8853 -0.8528 0.0000
| 16> *
| 17>
| 18>                          ****END OF INPUT****

CARTESIAN COORDINATES (ANGSTROEM)
---------------------------------
  O      0.055300   -0.613200    0.000000
  O      0.055300    0.719800    0.000000
  H     -0.885300   -0.852800    0.000000

 Total Charge           Charge          ....    0
 Multiplicity           Mult            ....    2
 Number of Electrons    NEL             ....   17
 Basis Dimension        Dim             ....  378

ORBITAL ENERGIES
----------------
                 SPIN UP ORBITALS
  NO   OCC          E(Eh)            E(eV)
   0   1.0000     -18.883009      -513.8328
   1   1.0000     -18.832827      -512.4673
   2   1.0000      -1.111424       -30.2434
   3   1.0000      -0.799503       -21.7556
   4   1.0000      -0.516829       -14.0636
   5   1.0000      -0.438294       -11.9266
   6   1.0000      -0.437598       -11.9077
   7   1.0000      -0.253872        -6.9082
   8   1.0000      -0.247136        -6.7249
   9   0.0000      -0.039620        -1.0781
  10   0.0000       0.000828         0.0225
  11   0.0000       0.021928         0.5967
  12   0.0000       0.027391         0.7454
  13   0.0000       0.034944         0.9509

                 SPIN DOWN ORBITALS
  NO   OCC          E(Eh)            E(eV)
   0   1.0000     -18.875053      -513.6163
   1   1.0000     -18.815168      -511.9868
   2   1.0000      -1.090652       -29.6782
   3   1.0000      -0.768733       -20.9183
   4   1.0000      -0.503705       -13.7065
   5   1.0000      -0.424818       -11.5599
   6   1.0000      -0.387334       -10.5399
   7   1.0000      -0.231945        -6.3115
   8   0.0000      -0.177485        -4.8296
   9   0.0000      -0.037051        -1.0082
  10   0.0000       0.008065         0.2195
  11   0.0000       0.022832         0.6213
  12   0.0000       0.029734         0.8091

MULLIKEN ATOMIC CHARGES AND SPIN POPULATIONS
--------------------------------------------
   0 O :   -0.023763    0.277284
   1 O :   -0.178477    0.714644
   2 H :    0.202240    0.008073
Sum of atomic charges         :   -0.0000000

LOEWDIN ATOMIC CHARGES AND SPIN POPULATIONS
-------------------------------------------
   0 O :    0.593399    0.313667
   1 O :    0.245488    0.633957
   2 H :   -0.838887    0.052376

  Mayer bond orders larger than 0.1
B(  0-O ,  1-O ) :   1.3416 B(  0-O ,  2-H ) :   0.9755

FINAL SINGLE POINT ENERGY      -150.841450439846

DIPOLE MOMENT
-------------
                                X             Y             Z
Electronic contribution:      0.21650       0.23204       0.01060
Nuclear contribution   :     -0.85465      -0.82330       0.00000
                        -----------------------------------------
Total Dipole Moment    :     -0.63815      -0.59126       0.01060
                        -----------------------------------------
Magnitude (a.u.)       :      0.87002
Magnitude (Debye)      :      2.21142

Rotational constants in cm-1:    20.665858     1.118966     1.061491
Rotational constants in MHz : 619546.847976 33545.749135 31822.689817

                             ****ORCA TERMINATED NORMALLY****
TOTAL RUN TIME: 0 days 0 hours 11 minutes 4 seconds 77 msec
