                         Program Version 4.1.2  - RELEASE  -
|  1> !uks pbe nori aug-pc-4 grid5 nofinalgrid verytightscf
|  2>
|  3> %maxcore 6000
|  4>
|  5> %pal nprocs 4 end
|  6>
|  7> %scf
|  8> 	efield 0.0, 0.0, 0.0
|  9> 	maxiter 200
| 10> end
| 11>
| 12> * xyz 0 2
| 13> O 0.0553 -0.6132 0.0000
| 14> O 0.0553 0.7198 0.0000
| 15> H -0.8853 -0.8528 0.0000
| 16> *
| 17>
| 18>                          ****END OF INPUT****

CARTESIAN COORDINATES (ANGSTROEM)
---------------------------------
  O      0.055300   -0.613200    0.000000
  O      0.055300    0.719800    0.000000
  H     -0.885300   -0.852800    0.000000

 Total Charge           Charge          ....    0
 Multiplicity           Mult            ....    2
 Number of Electrons    NEL             ....   17
 Basis Dimension        Dim             ....  378

ORBITAL ENERGIES
----------------
                 SPIN UP ORBITALS
  NO   OCC          E(Eh)            E(eV)
   0   1.0000     -18.883004      -513.8327
   1   1.0000     -18.832823      -512.4672
   2   1.0000      -1.111420       -30.2433
   3   1.0000      -0.799500       -21.7555
   4   1.0000      -0.516826       -14.0636
   5   1.0000      -0.438271       -11.9260
   6   1.0000      -0.437615       -11.9081
   7   1.0000      -0.253869        -6.9081
   8   1.0000      -0.247133        -6.7248
   9   0.0000      -0.039537        -1.0759
  10   0.0000       0.001029         0.0280
  11   0.0000       0.023040         0.6270
  12   0.0000       0.026854         0.7307
  13   0.0000       0.034790         0.9467

                 SPIN DOWN ORBITALS
  NO   OCC          E(Eh)            E(eV)
   0   1.0000     -18.875048      -513.6162
   1   1.0000     -18.815164      -511.9866
   2   1.0000      -1.090649       -29.6781
   3   1.0000      -0.768730       -20.9182
   4   1.0000      -0.503702       -13.7064
   5   1.0000      -0.424814       -11.5598
   6   1.0000      -0.387331       -10.5398
   7   1.0000      -0.231942        -6.3115
   8   0.0000      -0.177481        -4.8295
   9   0.0000      -0.036966        -1.0059
  10   0.0000       0.008327         0.2266
  11   0.0000       0.023629         0.6430
  12   0.0000       0.029669         0.8073

MULLIKEN ATOMIC CHARGES AND SPIN POPULATIONS
--------------------------------------------
   0 O :   -0.023775    0.277283
   1 O :   -0.178465    0.714643
   2 H :    0.202240    0.008074
Sum of atomic charges         :    0.0000000

LOEWDIN ATOMIC CHARGES AND SPIN POPULATIONS
-------------------------------------------
   0 O :    0.593399    0.313665
   1 O :    0.245487    0.633959
   2 H :   -0.838886    0.052376

  Mayer bond orders larger than 0.1
B(  0-O ,  1-O ) :   1.3417 B(  0-O ,  2-H ) :   0.9755

FINAL SINGLE POINT ENERGY      -150.841445138434

DIPOLE MOMENT
-------------
                                X             Y             Z
Electronic contribution:      0.21650       0.23204      -0.00000
Nuclear contribution   :     -0.85465      -0.82330       0.00000
                        -----------------------------------------
Total Dipole Moment    :     -0.63815      -0.59126      -0.00000
                        -----------------------------------------
Magnitude (a.u.)       :      0.86996
Magnitude (Debye)      :      2.21125

Rotational constants in cm-1:    20.665858     1.118966     1.061491
Rotational constants in MHz : 619546.847976 33545.749135 31822.689817

                             ****ORCA TERMINATED NORMALLY****
TOTAL RUN TIME: 0 days 0 hours 11 minutes 53 seconds 423 msec
