                         Program Version 4.1.2  - RELEASE  -
|  1> !uks pbe nori aug-pc-4 grid5 nofinalgrid verytightscf
|  2>
|  3> %maxcore 6000
|  4>
|  5> %pal nprocs 4 end
|  6>
|  7> %scf
|  8> 	efield -0.001, 0.0, 0.0
|  9> 	maxiter 200
| 10> end
| 11>
| 12> * xyz 0 2
| 13> O 0.0553 -0.6132 0.0000
| 14> O 0.0553 0.7198 0.0000
| 15> H -0.8853 -0.8528 0.0000
| 16> *
| 17>
| 18>                          ****END OF INPUT****

CARTESIAN COORDINATES (ANGSTROEM)
---------------------------------
  O      0.055300   -0.613200    0.000000
  O      0.055300    0.719800    0.000000
  H     -0.885300   -0.852800    0.000000

 Total Charge           Charge          ....    0
 Multiplicity           Mult            ....    2
 Number of Electrons    NEL             ....   17
 Basis Dimension        Dim             ....  378

ORBITAL ENERGIES
----------------
                 SPIN UP ORBITALS
  NO   OCC          E(Eh)            E(eV)
   0   1.0000     -18.882771      -513.8263
   1   1.0000     -18.832718      -512.4643
   2   1.0000      -1.111244       -30.2385
   3   1.0000      -0.799306       -21.7502
   4   1.0000      -0.516591       -14.0571
   5   1.0000      -0.438179       -11.9234
   6   1.0000      -0.437678       -11.9098
   7   1.0000      -0.253779        -6.9057
   8   1.0000      -0.247044        -6.7224
   9   0.0000      -0.037361        -1.0166
  10   0.0000       0.001545         0.0420
  11   0.0000       0.020176         0.5490
  12   0.0000       0.026869         0.7312
  13   0.0000       0.037865         1.0304

                 SPIN DOWN ORBITALS
  NO   OCC          E(Eh)            E(eV)
   0   1.0000     -18.874811      -513.6097
   1   1.0000     -18.815064      -511.9839
   2   1.0000      -1.090466       -29.6731
   3   1.0000      -0.768535       -20.9129
   4   1.0000      -0.503476       -13.7003
   5   1.0000      -0.424878       -11.5615
   6   1.0000      -0.387231       -10.5371
   7   1.0000      -0.231856        -6.3091
   8   0.0000      -0.177409        -4.8275
   9   0.0000      -0.034634        -0.9424
  10   0.0000       0.008771         0.2387
  11   0.0000       0.020772         0.5652
  12   0.0000       0.029643         0.8066

MULLIKEN ATOMIC CHARGES AND SPIN POPULATIONS
--------------------------------------------
   0 O :   -0.025021    0.277488
   1 O :   -0.179603    0.714485
   2 H :    0.204625    0.008027
Sum of atomic charges         :    0.0000000

LOEWDIN ATOMIC CHARGES AND SPIN POPULATIONS
-------------------------------------------
   0 O :    0.592974    0.313778
   1 O :    0.245176    0.633817
   2 H :   -0.838150    0.052405

  Mayer bond orders larger than 0.1
B(  0-O ,  1-O ) :   1.3416 B(  0-O ,  2-H ) :   0.9732

FINAL SINGLE POINT ENERGY      -150.842089768600

DIPOLE MOMENT
-------------
                                X             Y             Z
Electronic contribution:      0.20354       0.23050      -0.00000
Nuclear contribution   :     -0.85465      -0.82330       0.00000
                        -----------------------------------------
Total Dipole Moment    :     -0.65110      -0.59281      -0.00000
                        -----------------------------------------
Magnitude (a.u.)       :      0.88054
Magnitude (Debye)      :      2.23816

Rotational constants in cm-1:    20.665858     1.118966     1.061491
Rotational constants in MHz : 619546.847976 33545.749135 31822.689817

                             ****ORCA TERMINATED NORMALLY****
TOTAL RUN TIME: 0 days 0 hours 11 minutes 30 seconds 27 msec
