                         Program Version 4.1.2  - RELEASE  -
|  1> !uks pbe nori aug-pc-4 grid5 nofinalgrid verytightscf
|  2>
|  3> %maxcore 6000
|  4>
|  5> %pal nprocs 4 end
|  6>
|  7> %scf
|  8> 	efield 0.0, -0.001, 0.0
|  9> 	maxiter 200
| 10> end
| 11>
| 12> * xyz 0 2
| 13> Li 0.0 0.0 0.0
| 14> *
| 15>
| 16>                          ****END OF INPUT****

CARTESIAN COORDINATES (ANGSTROEM)
---------------------------------
  Li     0.000000    0.000000    0.000000

 Total Charge           Charge          ....    0
 Multiplicity           Mult            ....    2
 Number of Electrons    NEL             ....    3
 Basis Dimension        Dim             ....   83

ORBITAL ENERGIES
----------------
                 SPIN UP ORBITALS
  NO   OCC          E(Eh)            E(eV)
   0   1.0000      -1.901493       -51.7423
   1   1.0000      -0.118718        -3.2305
   2   0.0000      -0.049591        -1.3494
   3   0.0000      -0.049565        -1.3487
   4   0.0000      -0.049565        -1.3487
   5   0.0000      -0.007113        -0.1936
   6   0.0000       0.009597         0.2612

                 SPIN DOWN ORBITALS
  NO   OCC          E(Eh)            E(eV)
   0   1.0000      -1.893166       -51.5157
   1   0.0000       0.002413         0.0657
   2   0.0000       0.010291         0.2800
   3   0.0000       0.019758         0.5377
   4   0.0000       0.019759         0.5377
   5   0.0000       0.024193         0.6583

MULLIKEN ATOMIC CHARGES AND SPIN POPULATIONS
--------------------------------------------
   0 Li:   -0.000000    1.000000
Sum of atomic charges         :   -0.0000000

LOEWDIN ATOMIC CHARGES AND SPIN POPULATIONS
-------------------------------------------
   0 Li:   -0.000000    1.000000

FINAL SINGLE POINT ENERGY        -7.462220881752

DIPOLE MOMENT
-------------
                                X             Y             Z
Electronic contribution:     -0.00000      -0.14191      -0.00000
Nuclear contribution   :      0.00000       0.00000       0.00000
                        -----------------------------------------
Total Dipole Moment    :     -0.00000      -0.14191      -0.00000
                        -----------------------------------------
Magnitude (a.u.)       :      0.14191
Magnitude (Debye)      :      0.36071

Rotational constants in cm-1:     0.000000     0.000000     0.000000
Rotational constants in MHz :     0.000000     0.000000     0.000000

                             ****ORCA TERMINATED NORMALLY****
TOTAL RUN TIME: 0 days 0 hours 0 minutes 5 seconds 435 msec
