                         Program Version 4.1.2  - RELEASE  -
|  1> !uks pbe nori aug-pc-4 grid5 nofinalgrid verytightscf
|  2>
|  3> %maxcore 6000
|  4>
|  5> %pal nprocs 4 end
|  6>
|  7> %scf
|  8> 	efield 0.0, 0.0, 0.0
|  9> 	maxiter 200
| 10> end
| 11>
| 12> * xyz 0 1
| 13> Li 0.0000 0.0000 0.0000
| 14> Cl 0.0000 0.0000 2.0207
| 15> *
| 16>
| 17>                          ****END OF INPUT****

CARTESIAN COORDINATES (ANGSTROEM)
---------------------------------
  Li     0.000000    0.000000    0.000000
  Cl     0.000000    0.000000    2.020700

 Total Charge           Charge          ....    0
 Multiplicity           Mult            ....    1
 Number of Electrons    NEL             ....   20
 Basis Dimension        Dim             ....  224

ORBITAL ENERGIES
----------------
                 SPIN UP ORBITALS
  NO   OCC          E(Eh)            E(eV)
   0   1.0000    -100.553332     -2736.1953
   1   1.0000      -9.078615      -247.0417
   2   1.0000      -6.894810      -187.6173
   3   1.0000      -6.894219      -187.6012
   4   1.0000      -6.894219      -187.6012
   5   1.0000      -1.897176       -51.6248
   6   1.0000      -0.643489       -17.5102
   7   1.0000      -0.237410        -6.4603
   8   1.0000      -0.216000        -5.8777
   9   1.0000      -0.216000        -5.8777
  10   0.0000      -0.066133        -1.7996
  11   0.0000      -0.007548        -0.2054
  12   0.0000      -0.007548        -0.2054
  13   0.0000       0.003748         0.1020
  14   0.0000       0.008779         0.2389

                 SPIN DOWN ORBITALS
  NO   OCC          E(Eh)            E(eV)
   0   1.0000    -100.553332     -2736.1953
   1   1.0000      -9.078615      -247.0417
   2   1.0000      -6.894810      -187.6173
   3   1.0000      -6.894219      -187.6012
   4   1.0000      -6.894219      -187.6012
   5   1.0000      -1.897176       -51.6248
   6   1.0000      -0.643489       -17.5102
   7   1.0000      -0.237410        -6.4603
   8   1.0000      -0.216000        -5.8777
   9   1.0000      -0.216000        -5.8777
  10   0.0000      -0.066133        -1.7996
  11   0.0000      -0.007548        -0.2054
  12   0.0000      -0.007548        -0.2054
  13   0.0000       0.003748         0.1020
  14   0.0000       0.008779         0.2389

MULLIKEN ATOMIC CHARGES AND SPIN POPULATIONS
--------------------------------------------
   0 Li:    0.606836    0.000000
   1 Cl:   -0.606836   -0.000000
Sum of atomic charges         :   -0.0000000

LOEWDIN ATOMIC CHARGES AND SPIN POPULATIONS
-------------------------------------------
   0 Li:   -0.241314   -0.000000
   1 Cl:    0.241314    0.000000

  Mayer bond orders larger than 0.1
B(  0-Li,  1-Cl) :   0.7079

FINAL SINGLE POINT ENERGY      -467.612388473118

DIPOLE MOMENT
-------------
                                X             Y             Z
Electronic contribution:     -0.00000      -0.00000      -3.74095
Nuclear contribution   :      0.00000       0.00000       1.04827
                        -----------------------------------------
Total Dipole Moment    :     -0.00000      -0.00000      -2.69267
                        -----------------------------------------
Magnitude (a.u.)       :      2.69267
Magnitude (Debye)      :      6.84423

Rotational constants in cm-1:     0.000000     0.711250     0.711250
Rotational constants in MHz :     0.000000 21322.753260 21322.753260

                             ****ORCA TERMINATED NORMALLY****
TOTAL RUN TIME: 0 days 0 hours 2 minutes 56 seconds 47 msec
