                         Program Version 4.1.2  - RELEASE  -
|  1> !uks pbe nori aug-pc-4 grid5 nofinalgrid verytightscf
|  2>
|  3> %maxcore 6000
|  4>
|  5> %pal nprocs 4 end
|  6>
|  7> %scf
|  8> 	efield 0.0, 0.0, -0.001
|  9> 	maxiter 200
| 10> end
| 11>
| 12> * xyz 0 1
| 13> Li 0.0000 0.0000 0.0000
| 14> Cl 0.0000 0.0000 2.0207
| 15> *
| 16>
| 17>                          ****END OF INPUT****

CARTESIAN COORDINATES (ANGSTROEM)
---------------------------------
  Li     0.000000    0.000000    0.000000
  Cl     0.000000    0.000000    2.020700

 Total Charge           Charge          ....    0
 Multiplicity           Mult            ....    1
 Number of Electrons    NEL             ....   20
 Basis Dimension        Dim             ....  224

ORBITAL ENERGIES
----------------
                 SPIN UP ORBITALS
  NO   OCC          E(Eh)            E(eV)
   0   1.0000    -100.553140     -2736.1900
   1   1.0000      -9.078468      -247.0377
   2   1.0000      -6.894661      -187.6133
   3   1.0000      -6.894066      -187.5971
   4   1.0000      -6.894066      -187.5971
   5   1.0000      -1.895382       -51.5760
   6   1.0000      -0.643491       -17.5103
   7   1.0000      -0.237477        -6.4621
   8   1.0000      -0.216010        -5.8779
   9   1.0000      -0.216010        -5.8779
  10   0.0000      -0.061464        -1.6725
  11   0.0000      -0.003455        -0.0940
  12   0.0000      -0.003455        -0.0940
  13   0.0000       0.006427         0.1749
  14   0.0000       0.015072         0.4101

                 SPIN DOWN ORBITALS
  NO   OCC          E(Eh)            E(eV)
   0   1.0000    -100.553140     -2736.1900
   1   1.0000      -9.078468      -247.0377
   2   1.0000      -6.894661      -187.6133
   3   1.0000      -6.894066      -187.5971
   4   1.0000      -6.894066      -187.5971
   5   1.0000      -1.895382       -51.5760
   6   1.0000      -0.643491       -17.5103
   7   1.0000      -0.237477        -6.4621
   8   1.0000      -0.216010        -5.8779
   9   1.0000      -0.216010        -5.8779
  10   0.0000      -0.061464        -1.6725
  11   0.0000      -0.003455        -0.0940
  12   0.0000      -0.003455        -0.0940
  13   0.0000       0.006427         0.1749
  14   0.0000       0.015072         0.4101

MULLIKEN ATOMIC CHARGES AND SPIN POPULATIONS
--------------------------------------------
   0 Li:    0.612084   -0.000000
   1 Cl:   -0.612084    0.000000
Sum of atomic charges         :   -0.0000000

LOEWDIN ATOMIC CHARGES AND SPIN POPULATIONS
-------------------------------------------
   0 Li:   -0.239018    0.000000
   1 Cl:    0.239018    0.000000

  Mayer bond orders larger than 0.1
B(  0-Li,  1-Cl) :   0.6988

FINAL SINGLE POINT ENERGY      -467.615096608120

DIPOLE MOMENT
-------------
                                X             Y             Z
Electronic contribution:     -0.00000       0.00000      -3.77184
Nuclear contribution   :      0.00000       0.00000       1.04827
                        -----------------------------------------
Total Dipole Moment    :     -0.00000       0.00000      -2.72356
                        -----------------------------------------
Magnitude (a.u.)       :      2.72356
Magnitude (Debye)      :      6.92274

Rotational constants in cm-1:     0.000000     0.711250     0.711250
Rotational constants in MHz :     0.000000 21322.753260 21322.753260

                             ****ORCA TERMINATED NORMALLY****
TOTAL RUN TIME: 0 days 0 hours 2 minutes 54 seconds 976 msec
