                         Program Version 4.1.2  - RELEASE  -
|  1> !uks pbe nori aug-pc-4 grid5 nofinalgrid verytightscf
|  2>
|  3> %maxcore 6000
|  4>
|  5> %pal nprocs 4 end
|  6>
|  7> %scf
|  8> 	efield -0.001, 0.0, 0.0
|  9> 	maxiter 200
| 10> end
| 11>
| 12> * xyz 0 1
| 13> Li 0.0000 0.0000 0.0000
| 14> Cl 0.0000 0.0000 2.0207
| 15> *
| 16>
| 17>                          ****END OF INPUT****

CARTESIAN COORDINATES (ANGSTROEM)
---------------------------------
  Li     0.000000    0.000000    0.000000
  Cl     0.000000    0.000000    2.020700

 Total Charge           Charge          ....    0
 Multiplicity           Mult            ....    1
 Number of Electrons    NEL             ....   20
 Basis Dimension        Dim             ....  224

ORBITAL ENERGIES
----------------
                 SPIN UP ORBITALS
  NO   OCC          E(Eh)            E(eV)
   0   1.0000    -100.553351     -2736.1958
   1   1.0000      -9.078633      -247.0422
   2   1.0000      -6.894829      -187.6178
   3   1.0000      -6.894238      -187.6017
   4   1.0000      -6.894237      -187.6017
   5   1.0000      -1.897181       -51.6249
   6   1.0000      -0.643504       -17.5106
   7   1.0000      -0.237423        -6.4606
   8   1.0000      -0.216016        -5.8781
   9   1.0000      -0.216013        -5.8780
  10   0.0000      -0.066241        -1.8025
  11   0.0000      -0.008605        -0.2342
  12   0.0000      -0.007706        -0.2097
  13   0.0000       0.002342         0.0637
  14   0.0000       0.007895         0.2148

                 SPIN DOWN ORBITALS
  NO   OCC          E(Eh)            E(eV)
   0   1.0000    -100.553351     -2736.1958
   1   1.0000      -9.078633      -247.0422
   2   1.0000      -6.894829      -187.6178
   3   1.0000      -6.894238      -187.6017
   4   1.0000      -6.894237      -187.6017
   5   1.0000      -1.897181       -51.6249
   6   1.0000      -0.643504       -17.5106
   7   1.0000      -0.237423        -6.4606
   8   1.0000      -0.216016        -5.8781
   9   1.0000      -0.216013        -5.8780
  10   0.0000      -0.066241        -1.8025
  11   0.0000      -0.008605        -0.2342
  12   0.0000      -0.007706        -0.2097
  13   0.0000       0.002342         0.0637
  14   0.0000       0.007895         0.2148

MULLIKEN ATOMIC CHARGES AND SPIN POPULATIONS
--------------------------------------------
   0 Li:    0.606811   -0.000000
   1 Cl:   -0.606811    0.000000
Sum of atomic charges         :   -0.0000000

LOEWDIN ATOMIC CHARGES AND SPIN POPULATIONS
-------------------------------------------
   0 Li:   -0.241335   -0.000000
   1 Cl:    0.241335    0.000000

  Mayer bond orders larger than 0.1
B(  0-Li,  1-Cl) :   0.7080

FINAL SINGLE POINT ENERGY      -467.612402908014

DIPOLE MOMENT
-------------
                                X             Y             Z
Electronic contribution:     -0.02887      -0.00000      -3.74088
Nuclear contribution   :      0.00000       0.00000       1.04827
                        -----------------------------------------
Total Dipole Moment    :     -0.02887      -0.00000      -2.69260
                        -----------------------------------------
Magnitude (a.u.)       :      2.69276
Magnitude (Debye)      :      6.84445

Rotational constants in cm-1:     0.000000     0.711250     0.711250
Rotational constants in MHz :     0.000000 21322.753260 21322.753260

                             ****ORCA TERMINATED NORMALLY****
TOTAL RUN TIME: 0 days 0 hours 3 minutes 33 seconds 251 msec
