                         Program Version 4.1.2  - RELEASE  -
|  1> !uks pbe nori aug-pc-4 grid5 nofinalgrid verytightscf
|  2>
|  3> %maxcore 6000
|  4>
|  5> %pal nprocs 4 end
|  6>
|  7> %scf
|  8> 	efield 0.0, 0.0, 0.001
|  9> 	maxiter 200
| 10> end
| 11>
| 12> * xyz 0 1
| 13> Li 0.0000 0.0000 0.0000
| 14> Cl 0.0000 0.0000 2.0207
| 15> *
| 16>
| 17>                          ****END OF INPUT****

CARTESIAN COORDINATES (ANGSTROEM)
---------------------------------
  Li     0.000000    0.000000    0.000000
  Cl     0.000000    0.000000    2.020700

 Total Charge           Charge          ....    0
 Multiplicity           Mult            ....    1
 Number of Electrons    NEL             ....   20
 Basis Dimension        Dim             ....  224

ORBITAL ENERGIES
----------------
                 SPIN UP ORBITALS
  NO   OCC          E(Eh)            E(eV)
   0   1.0000    -100.553564     -2736.2016
   1   1.0000      -9.078800      -247.0467
   2   1.0000      -6.894998      -187.6224
   3   1.0000      -6.894410      -187.6064
   4   1.0000      -6.894410      -187.6064
   5   1.0000      -1.898971       -51.6736
   6   1.0000      -0.643517       -17.5110
   7   1.0000      -0.237373        -6.4592
   8   1.0000      -0.216019        -5.8782
   9   1.0000      -0.216019        -5.8782
  10   0.0000      -0.070933        -1.9302
  11   0.0000      -0.011898        -0.3238
  12   0.0000      -0.011898        -0.3238
  13   0.0000      -0.007928        -0.2157
  14   0.0000       0.009300         0.2531

                 SPIN DOWN ORBITALS
  NO   OCC          E(Eh)            E(eV)
   0   1.0000    -100.553564     -2736.2016
   1   1.0000      -9.078800      -247.0467
   2   1.0000      -6.894998      -187.6224
   3   1.0000      -6.894410      -187.6064
   4   1.0000      -6.894410      -187.6064
   5   1.0000      -1.898971       -51.6736
   6   1.0000      -0.643517       -17.5110
   7   1.0000      -0.237373        -6.4592
   8   1.0000      -0.216019        -5.8782
   9   1.0000      -0.216019        -5.8782
  10   0.0000      -0.070933        -1.9302
  11   0.0000      -0.011898        -0.3238
  12   0.0000      -0.011898        -0.3238
  13   0.0000      -0.007928        -0.2157
  14   0.0000       0.009300         0.2531

MULLIKEN ATOMIC CHARGES AND SPIN POPULATIONS
--------------------------------------------
   0 Li:    0.601320   -0.000000
   1 Cl:   -0.601320    0.000000
Sum of atomic charges         :   -0.0000000

LOEWDIN ATOMIC CHARGES AND SPIN POPULATIONS
-------------------------------------------
   0 Li:   -0.243654   -0.000000
   1 Cl:    0.243654    0.000000

  Mayer bond orders larger than 0.1
B(  0-Li,  1-Cl) :   0.7174

FINAL SINGLE POINT ENERGY      -467.609711339674

DIPOLE MOMENT
-------------
                                X             Y             Z
Electronic contribution:     -0.00000       0.00000      -3.70983
Nuclear contribution   :      0.00000       0.00000       1.04827
                        -----------------------------------------
Total Dipole Moment    :     -0.00000       0.00000      -2.66155
                        -----------------------------------------
Magnitude (a.u.)       :      2.66155
Magnitude (Debye)      :      6.76513

Rotational constants in cm-1:     0.000000     0.711250     0.711250
Rotational constants in MHz :     0.000000 21322.753260 21322.753260

                             ****ORCA TERMINATED NORMALLY****
TOTAL RUN TIME: 0 days 0 hours 2 minutes 51 seconds 760 msec
