                         Program Version 4.1.2  - RELEASE  -
|  1> !uks pbe nori aug-pc-4 grid5 nofinalgrid verytightscf
|  2>
|  3> %maxcore 6000
|  4>
|  5> %pal nprocs 4 end
|  6>
|  7> %scf
|  8> 	efield 0.0, 0.001, 0.0
|  9> 	maxiter 200
| 10> end
| 11>
| 12> * xyz 0 1
| 13> Li 1.4157454937 -0.6164252897 0.0000000000
| 14> C -0.6780148225 -0.3855159545 0.0000000000
| 15> N -0.0211306712 0.6069412443 0.0000000000
| 16> *
| 17>
| 18>                          ****END OF INPUT****

CARTESIAN COORDINATES (ANGSTROEM)
---------------------------------
  Li     1.415745   -0.616425    0.000000
  C     -0.678015   -0.385516    0.000000
  N     -0.021131    0.606941    0.000000

 Total Charge           Charge          ....    0
 Multiplicity           Mult            ....    1
 Number of Electrons    NEL             ....   16
 Basis Dimension        Dim             ....  373

ORBITAL ENERGIES
----------------
                 SPIN UP ORBITALS
  NO   OCC          E(Eh)            E(eV)
   0   1.0000     -13.939806      -379.3214
   1   1.0000      -9.861049      -268.3328
   2   1.0000      -1.913210       -52.0611
   3   1.0000      -0.778523       -21.1847
   4   1.0000      -0.342582        -9.3221
   5   1.0000      -0.288408        -7.8480
   6   1.0000      -0.269429        -7.3315
   7   1.0000      -0.216713        -5.8970
   8   0.0000      -0.069000        -1.8776
   9   0.0000      -0.029136        -0.7928
  10   0.0000      -0.011741        -0.3195
  11   0.0000      -0.005165        -0.1405
  12   0.0000       0.007991         0.2175

                 SPIN DOWN ORBITALS
  NO   OCC          E(Eh)            E(eV)
   0   1.0000     -13.939806      -379.3214
   1   1.0000      -9.861049      -268.3328
   2   1.0000      -1.913210       -52.0611
   3   1.0000      -0.778523       -21.1847
   4   1.0000      -0.342582        -9.3221
   5   1.0000      -0.288408        -7.8480
   6   1.0000      -0.269429        -7.3315
   7   1.0000      -0.216713        -5.8970
   8   0.0000      -0.069000        -1.8776
   9   0.0000      -0.029136        -0.7928
  10   0.0000      -0.011741        -0.3195
  11   0.0000      -0.005165        -0.1405
  12   0.0000       0.007991         0.2175

MULLIKEN ATOMIC CHARGES AND SPIN POPULATIONS
--------------------------------------------
   0 Li:    0.701810    0.000000
   1 C :   -0.388022   -0.000000
   2 N :   -0.313789    0.000000
Sum of atomic charges         :    0.0000000

LOEWDIN ATOMIC CHARGES AND SPIN POPULATIONS
-------------------------------------------
   0 Li:    0.105941   -0.000000
   1 C :   -0.113790    0.000000
   2 N :    0.007849    0.000000

  Mayer bond orders larger than 0.1
B(  0-Li,  1-C ) :   0.1297 B(  0-Li,  2-N ) :   0.3583 B(  1-C ,  2-N ) :   2.4614

FINAL SINGLE POINT ENERGY      -100.283905999974

DIPOLE MOMENT
-------------
                                X             Y             Z
Electronic contribution:      3.72096      -1.46398      -0.00000
Nuclear contribution   :     -1.21344       0.53686       0.00000
                        -----------------------------------------
Total Dipole Moment    :      2.50752      -0.92712      -0.00000
                        -----------------------------------------
Magnitude (a.u.)       :      2.67342
Magnitude (Debye)      :      6.79530

Rotational constants in cm-1:     1.939920     0.831697     0.582124
Rotational constants in MHz : 58157.349324 24933.635650 17451.642424

                             ****ORCA TERMINATED NORMALLY****
TOTAL RUN TIME: 0 days 0 hours 13 minutes 11 seconds 148 msec
