                         Program Version 4.1.2  - RELEASE  -
|  1> !uks pbe nori aug-pc-4 grid5 nofinalgrid verytightscf
|  2>
|  3> %maxcore 6000
|  4>
|  5> %pal nprocs 4 end
|  6>
|  7> %scf
|  8> 	efield 0.0, -0.001, 0.0
|  9> 	maxiter 200
| 10> end
| 11>
| 12> * xyz 0 1
| 13> Li 1.4157454937 -0.6164252897 0.0000000000
| 14> C -0.6780148225 -0.3855159545 0.0000000000
| 15> N -0.0211306712 0.6069412443 0.0000000000
| 16> *
| 17>
| 18>                          ****END OF INPUT****

CARTESIAN COORDINATES (ANGSTROEM)
---------------------------------
  Li     1.415745   -0.616425    0.000000
  C     -0.678015   -0.385516    0.000000
  N     -0.021131    0.606941    0.000000

 Total Charge           Charge          ....    0
 Multiplicity           Mult            ....    1
 Number of Electrons    NEL             ....   16
 Basis Dimension        Dim             ....  373

ORBITAL ENERGIES
----------------
                 SPIN UP ORBITALS
  NO   OCC          E(Eh)            E(eV)
   0   1.0000     -13.939546      -379.3143
   1   1.0000      -9.860659      -268.3222
   2   1.0000      -1.911613       -52.0176
   3   1.0000      -0.778487       -21.1837
   4   1.0000      -0.342986        -9.3331
   5   1.0000      -0.288309        -7.8453
   6   1.0000      -0.269423        -7.3314
   7   1.0000      -0.215765        -5.8713
   8   0.0000      -0.064720        -1.7611
   9   0.0000      -0.027593        -0.7508
  10   0.0000      -0.008319        -0.2264
  11   0.0000       0.001422         0.0387
  12   0.0000       0.010798         0.2938

                 SPIN DOWN ORBITALS
  NO   OCC          E(Eh)            E(eV)
   0   1.0000     -13.939546      -379.3143
   1   1.0000      -9.860659      -268.3222
   2   1.0000      -1.911613       -52.0176
   3   1.0000      -0.778487       -21.1837
   4   1.0000      -0.342986        -9.3331
   5   1.0000      -0.288309        -7.8453
   6   1.0000      -0.269423        -7.3314
   7   1.0000      -0.215765        -5.8713
   8   0.0000      -0.064720        -1.7611
   9   0.0000      -0.027593        -0.7508
  10   0.0000      -0.008319        -0.2264
  11   0.0000       0.001422         0.0387
  12   0.0000       0.010798         0.2938

MULLIKEN ATOMIC CHARGES AND SPIN POPULATIONS
--------------------------------------------
   0 Li:    0.705299   -0.000000
   1 C :   -0.384045   -0.000000
   2 N :   -0.321254    0.000000
Sum of atomic charges         :    0.0000000

LOEWDIN ATOMIC CHARGES AND SPIN POPULATIONS
-------------------------------------------
   0 Li:    0.107169    0.000000
   1 C :   -0.113443   -0.000000
   2 N :    0.006274    0.000000

  Mayer bond orders larger than 0.1
B(  0-Li,  1-C ) :   0.1249 B(  0-Li,  2-N ) :   0.3566 B(  1-C ,  2-N ) :   2.4513

FINAL SINGLE POINT ENERGY      -100.285816579942

DIPOLE MOMENT
-------------
                                X             Y             Z
Electronic contribution:      3.71754      -1.52025       0.00000
Nuclear contribution   :     -1.21344       0.53686       0.00000
                        -----------------------------------------
Total Dipole Moment    :      2.50410      -0.98339       0.00000
                        -----------------------------------------
Magnitude (a.u.)       :      2.69028
Magnitude (Debye)      :      6.83814

Rotational constants in cm-1:     1.939920     0.831697     0.582124
Rotational constants in MHz : 58157.349324 24933.635650 17451.642424

                             ****ORCA TERMINATED NORMALLY****
TOTAL RUN TIME: 0 days 0 hours 13 minutes 10 seconds 496 msec
