                         Program Version 4.1.2  - RELEASE  -
|  1> !uks pbe nori aug-pc-4 grid5 nofinalgrid verytightscf
|  2>
|  3> %maxcore 6000
|  4>
|  5> %pal nprocs 4 end
|  6>
|  7> %scf
|  8> 	efield 0.001, 0.0, 0.0
|  9> 	maxiter 200
| 10> end
| 11>
| 12> * xyz 0 1
| 13> Li 1.4157454937 -0.6164252897 0.0000000000
| 14> C -0.6780148225 -0.3855159545 0.0000000000
| 15> N -0.0211306712 0.6069412443 0.0000000000
| 16> *
| 17>
| 18>                          ****END OF INPUT****

CARTESIAN COORDINATES (ANGSTROEM)
---------------------------------
  Li     1.415745   -0.616425    0.000000
  C     -0.678015   -0.385516    0.000000
  N     -0.021131    0.606941    0.000000

 Total Charge           Charge          ....    0
 Multiplicity           Mult            ....    1
 Number of Electrons    NEL             ....   16
 Basis Dimension        Dim             ....  373

ORBITAL ENERGIES
----------------
                 SPIN UP ORBITALS
  NO   OCC          E(Eh)            E(eV)
   0   1.0000     -13.939960      -379.3256
   1   1.0000      -9.861101      -268.3342
   2   1.0000      -1.910906       -51.9984
   3   1.0000      -0.778803       -21.1923
   4   1.0000      -0.342935        -9.3317
   5   1.0000      -0.288664        -7.8549
   6   1.0000      -0.269729        -7.3397
   7   1.0000      -0.216923        -5.9028
   8   0.0000      -0.062603        -1.7035
   9   0.0000      -0.026670        -0.7257
  10   0.0000      -0.006611        -0.1799
  11   0.0000       0.005780         0.1573
  12   0.0000       0.012816         0.3487

                 SPIN DOWN ORBITALS
  NO   OCC          E(Eh)            E(eV)
   0   1.0000     -13.939960      -379.3256
   1   1.0000      -9.861101      -268.3342
   2   1.0000      -1.910906       -51.9984
   3   1.0000      -0.778803       -21.1923
   4   1.0000      -0.342935        -9.3317
   5   1.0000      -0.288664        -7.8549
   6   1.0000      -0.269729        -7.3397
   7   1.0000      -0.216923        -5.9028
   8   0.0000      -0.062603        -1.7035
   9   0.0000      -0.026670        -0.7257
  10   0.0000      -0.006611        -0.1799
  11   0.0000       0.005780         0.1573
  12   0.0000       0.012816         0.3487

MULLIKEN ATOMIC CHARGES AND SPIN POPULATIONS
--------------------------------------------
   0 Li:    0.705884   -0.000000
   1 C :   -0.387866    0.000000
   2 N :   -0.318018    0.000000
Sum of atomic charges         :    0.0000000

LOEWDIN ATOMIC CHARGES AND SPIN POPULATIONS
-------------------------------------------
   0 Li:    0.107828   -0.000000
   1 C :   -0.114569   -0.000000
   2 N :    0.006741    0.000000

  Mayer bond orders larger than 0.1
B(  0-Li,  1-C ) :   0.1269 B(  0-Li,  2-N ) :   0.3548 B(  1-C ,  2-N ) :   2.4602

FINAL SINGLE POINT ENERGY      -100.287367252287

DIPOLE MOMENT
-------------
                                X             Y             Z
Electronic contribution:      3.74763      -1.49042      -0.00000
Nuclear contribution   :     -1.21344       0.53686       0.00000
                        -----------------------------------------
Total Dipole Moment    :      2.53418      -0.95356      -0.00000
                        -----------------------------------------
Magnitude (a.u.)       :      2.70765
Magnitude (Debye)      :      6.88230

Rotational constants in cm-1:     1.939920     0.831697     0.582124
Rotational constants in MHz : 58157.349324 24933.635650 17451.642424

                             ****ORCA TERMINATED NORMALLY****
TOTAL RUN TIME: 0 days 0 hours 13 minutes 7 seconds 201 msec
