                         Program Version 4.1.2  - RELEASE  -
|  1> !uks pbe nori aug-pc-4 grid5 nofinalgrid verytightscf
|  2>
|  3> %maxcore 6000
|  4>
|  5> %pal nprocs 4 end
|  6>
|  7> %scf
|  8> 	efield -0.001, 0.0, 0.0
|  9> 	maxiter 200
| 10> end
| 11>
| 12> * xyz 0 1
| 13> Li 1.4157454937 -0.6164252897 0.0000000000
| 14> C -0.6780148225 -0.3855159545 0.0000000000
| 15> N -0.0211306712 0.6069412443 0.0000000000
| 16> *
| 17>
| 18>                          ****END OF INPUT****

CARTESIAN COORDINATES (ANGSTROEM)
---------------------------------
  Li     1.415745   -0.616425    0.000000
  C     -0.678015   -0.385516    0.000000
  N     -0.021131    0.606941    0.000000

 Total Charge           Charge          ....    0
 Multiplicity           Mult            ....    1
 Number of Electrons    NEL             ....   16
 Basis Dimension        Dim             ....  373

ORBITAL ENERGIES
----------------
                 SPIN UP ORBITALS
  NO   OCC          E(Eh)            E(eV)
   0   1.0000     -13.939397      -379.3103
   1   1.0000      -9.860614      -268.3210
   2   1.0000      -1.913910       -52.0801
   3   1.0000      -0.778212       -21.1762
   4   1.0000      -0.342635        -9.3236
   5   1.0000      -0.288055        -7.8384
   6   1.0000      -0.269128        -7.3233
   7   1.0000      -0.215565        -5.8658
   8   0.0000      -0.071105        -1.9349
   9   0.0000      -0.030174        -0.8211
  10   0.0000      -0.013533        -0.3683
  11   0.0000      -0.007398        -0.2013
  12   0.0000       0.003948         0.1074

                 SPIN DOWN ORBITALS
  NO   OCC          E(Eh)            E(eV)
   0   1.0000     -13.939397      -379.3103
   1   1.0000      -9.860614      -268.3210
   2   1.0000      -1.913910       -52.0801
   3   1.0000      -0.778212       -21.1762
   4   1.0000      -0.342635        -9.3236
   5   1.0000      -0.288055        -7.8384
   6   1.0000      -0.269128        -7.3233
   7   1.0000      -0.215565        -5.8658
   8   0.0000      -0.071105        -1.9349
   9   0.0000      -0.030174        -0.8211
  10   0.0000      -0.013533        -0.3683
  11   0.0000      -0.007398        -0.2013
  12   0.0000       0.003948         0.1074

MULLIKEN ATOMIC CHARGES AND SPIN POPULATIONS
--------------------------------------------
   0 Li:    0.701311   -0.000000
   1 C :   -0.384044    0.000000
   2 N :   -0.317267   -0.000000
Sum of atomic charges         :    0.0000000

LOEWDIN ATOMIC CHARGES AND SPIN POPULATIONS
-------------------------------------------
   0 Li:    0.105270   -0.000000
   1 C :   -0.112656    0.000000
   2 N :    0.007386   -0.000000

  Mayer bond orders larger than 0.1
B(  0-Li,  1-C ) :   0.1274 B(  0-Li,  2-N ) :   0.3602 B(  1-C ,  2-N ) :   2.4531

FINAL SINGLE POINT ENERGY      -100.282355644330

DIPOLE MOMENT
-------------
                                X             Y             Z
Electronic contribution:      3.69071      -1.49383       0.00000
Nuclear contribution   :     -1.21344       0.53686       0.00000
                        -----------------------------------------
Total Dipole Moment    :      2.47727      -0.95697       0.00000
                        -----------------------------------------
Magnitude (a.u.)       :      2.65569
Magnitude (Debye)      :      6.75022

Rotational constants in cm-1:     1.939920     0.831697     0.582124
Rotational constants in MHz : 58157.349324 24933.635650 17451.642424

                             ****ORCA TERMINATED NORMALLY****
TOTAL RUN TIME: 0 days 0 hours 13 minutes 11 seconds 91 msec
