                         Program Version 4.1.2  - RELEASE  -
|  1> !uks pbe nori aug-pc-4 grid5 nofinalgrid verytightscf
|  2>
|  3> %maxcore 6000
|  4>
|  5> %pal nprocs 4 end
|  6>
|  7> %scf
|  8> 	efield 0.0, 0.0, 0.001
|  9> 	maxiter 200
| 10> end
| 11>
| 12> * xyz 0 1
| 13> Li 1.4157454937 -0.6164252897 0.0000000000
| 14> C -0.6780148225 -0.3855159545 0.0000000000
| 15> N -0.0211306712 0.6069412443 0.0000000000
| 16> *
| 17>
| 18>                          ****END OF INPUT****

CARTESIAN COORDINATES (ANGSTROEM)
---------------------------------
  Li     1.415745   -0.616425    0.000000
  C     -0.678015   -0.385516    0.000000
  N     -0.021131    0.606941    0.000000

 Total Charge           Charge          ....    0
 Multiplicity           Mult            ....    1
 Number of Electrons    NEL             ....   16
 Basis Dimension        Dim             ....  373

ORBITAL ENERGIES
----------------
                 SPIN UP ORBITALS
  NO   OCC          E(Eh)            E(eV)
   0   1.0000     -13.939674      -379.3178
   1   1.0000      -9.860852      -268.3274
   2   1.0000      -1.912411       -52.0394
   3   1.0000      -0.778503       -21.1842
   4   1.0000      -0.342780        -9.3275
   5   1.0000      -0.288356        -7.8466
   6   1.0000      -0.269427        -7.3315
   7   1.0000      -0.216239        -5.8842
   8   0.0000      -0.066875        -1.8198
   9   0.0000      -0.028363        -0.7718
  10   0.0000      -0.010831        -0.2947
  11   0.0000       0.000948         0.0258
  12   0.0000       0.008380         0.2280

                 SPIN DOWN ORBITALS
  NO   OCC          E(Eh)            E(eV)
   0   1.0000     -13.939674      -379.3178
   1   1.0000      -9.860852      -268.3274
   2   1.0000      -1.912411       -52.0394
   3   1.0000      -0.778503       -21.1842
   4   1.0000      -0.342780        -9.3275
   5   1.0000      -0.288356        -7.8466
   6   1.0000      -0.269427        -7.3315
   7   1.0000      -0.216239        -5.8842
   8   0.0000      -0.066875        -1.8198
   9   0.0000      -0.028363        -0.7718
  10   0.0000      -0.010831        -0.2947
  11   0.0000       0.000948         0.0258
  12   0.0000       0.008380         0.2280

MULLIKEN ATOMIC CHARGES AND SPIN POPULATIONS
--------------------------------------------
   0 Li:    0.703485    0.000000
   1 C :   -0.385960    0.000000
   2 N :   -0.317526   -0.000000
Sum of atomic charges         :   -0.0000000

LOEWDIN ATOMIC CHARGES AND SPIN POPULATIONS
-------------------------------------------
   0 Li:    0.106557    0.000000
   1 C :   -0.113616    0.000000
   2 N :    0.007059   -0.000000

  Mayer bond orders larger than 0.1
B(  0-Li,  1-C ) :   0.1274 B(  0-Li,  2-N ) :   0.3575 B(  1-C ,  2-N ) :   2.4564

FINAL SINGLE POINT ENERGY      -100.284858757281

DIPOLE MOMENT
-------------
                                X             Y             Z
Electronic contribution:      3.71925      -1.49215       0.02307
Nuclear contribution   :     -1.21344       0.53686       0.00000
                        -----------------------------------------
Total Dipole Moment    :      2.50581      -0.95529       0.02307
                        -----------------------------------------
Magnitude (a.u.)       :      2.68183
Magnitude (Debye)      :      6.81667

Rotational constants in cm-1:     1.939920     0.831697     0.582124
Rotational constants in MHz : 58157.349324 24933.635650 17451.642424

                             ****ORCA TERMINATED NORMALLY****
TOTAL RUN TIME: 0 days 0 hours 13 minutes 33 seconds 338 msec
