                         Program Version 4.1.2  - RELEASE  -
|  1> !uks pbe nori aug-pc-4 grid5 nofinalgrid verytightscf
|  2>
|  3> %maxcore 6000
|  4>
|  5> %pal nprocs 4 end
|  6>
|  7> %scf
|  8> 	efield 0.0, 0.0, -0.001
|  9> 	maxiter 200
| 10> end
| 11>
| 12> * xyz 0 1
| 13> Na 0.0000 0.0000 0.0000
| 14> Cl 0.0000 0.0000 2.3608
| 15> *
| 16>
| 17>                          ****END OF INPUT****

CARTESIAN COORDINATES (ANGSTROEM)
---------------------------------
  Na     0.000000    0.000000    0.000000
  Cl     0.000000    0.000000    2.360800

 Total Charge           Charge          ....    0
 Multiplicity           Mult            ....    1
 Number of Electrons    NEL             ....   28
 Basis Dimension        Dim             ....  226

ORBITAL ENERGIES
----------------
                 SPIN UP ORBITALS
  NO   OCC          E(Eh)            E(eV)
   0   1.0000    -100.535227     -2735.7026
   1   1.0000     -37.928364     -1032.0833
   2   1.0000      -9.059918      -246.5329
   3   1.0000      -6.876716      -187.1250
   4   1.0000      -6.875320      -187.0870
   5   1.0000      -6.875320      -187.0870
   6   1.0000      -2.097183       -57.0673
   7   1.0000      -1.073451       -29.2101
   8   1.0000      -1.073451       -29.2101
   9   1.0000      -1.071415       -29.1547
  10   1.0000      -0.621089       -16.9007
  11   1.0000      -0.212615        -5.7856
  12   1.0000      -0.195386        -5.3167
  13   1.0000      -0.195386        -5.3167
  14   0.0000      -0.078244        -2.1291
  15   0.0000      -0.006268        -0.1706
  16   0.0000      -0.006268        -0.1706
  17   0.0000       0.003858         0.1050
  18   0.0000       0.009592         0.2610

                 SPIN DOWN ORBITALS
  NO   OCC          E(Eh)            E(eV)
   0   1.0000    -100.535227     -2735.7026
   1   1.0000     -37.928364     -1032.0833
   2   1.0000      -9.059918      -246.5329
   3   1.0000      -6.876716      -187.1250
   4   1.0000      -6.875320      -187.0870
   5   1.0000      -6.875320      -187.0870
   6   1.0000      -2.097183       -57.0673
   7   1.0000      -1.073451       -29.2101
   8   1.0000      -1.073451       -29.2101
   9   1.0000      -1.071415       -29.1547
  10   1.0000      -0.621089       -16.9007
  11   1.0000      -0.212615        -5.7856
  12   1.0000      -0.195386        -5.3167
  13   1.0000      -0.195386        -5.3167
  14   0.0000      -0.078244        -2.1291
  15   0.0000      -0.006268        -0.1706
  16   0.0000      -0.006268        -0.1706
  17   0.0000       0.003858         0.1050
  18   0.0000       0.009592         0.2610

MULLIKEN ATOMIC CHARGES AND SPIN POPULATIONS
--------------------------------------------
   0 Na:    0.675005   -0.000000
   1 Cl:   -0.675005    0.000000
Sum of atomic charges         :   -0.0000000

LOEWDIN ATOMIC CHARGES AND SPIN POPULATIONS
-------------------------------------------
   0 Na:    0.658069   -0.000000
   1 Cl:   -0.658069    0.000000

  Mayer bond orders larger than 0.1
B(  0-Na,  1-Cl) :   0.5998

FINAL SINGLE POINT ENERGY      -622.300542838490

DIPOLE MOMENT
-------------
                                X             Y             Z
Electronic contribution:     -0.00000       0.00000      -3.44947
Nuclear contribution   :      0.00000       0.00000       0.06466
                        -----------------------------------------
Total Dipole Moment    :     -0.00000       0.00000      -3.38482
                        -----------------------------------------
Magnitude (a.u.)       :      3.38482
Magnitude (Debye)      :      8.60352

Rotational constants in cm-1:     0.000000     0.216880     0.216880
Rotational constants in MHz :     0.000000  6501.891981  6501.891981

                             ****ORCA TERMINATED NORMALLY****
TOTAL RUN TIME: 0 days 0 hours 4 minutes 7 seconds 579 msec
