                         Program Version 4.1.2  - RELEASE  -
|  1> !uks pbe nori aug-pc-4 grid5 nofinalgrid verytightscf
|  2>
|  3> %maxcore 6000
|  4>
|  5> %pal nprocs 4 end
|  6>
|  7> %scf
|  8> 	efield 0.0, 0.0, 0.001
|  9> 	maxiter 200
| 10> end
| 11>
| 12> * xyz 0 1
| 13> Na 0.0000 0.0000 0.0000
| 14> Cl 0.0000 0.0000 2.3608
| 15> *
| 16>
| 17>                          ****END OF INPUT****

CARTESIAN COORDINATES (ANGSTROEM)
---------------------------------
  Na     0.000000    0.000000    0.000000
  Cl     0.000000    0.000000    2.360800

 Total Charge           Charge          ....    0
 Multiplicity           Mult            ....    1
 Number of Electrons    NEL             ....   28
 Basis Dimension        Dim             ....  226

ORBITAL ENERGIES
----------------
                 SPIN UP ORBITALS
  NO   OCC          E(Eh)            E(eV)
   0   1.0000    -100.534185     -2735.6743
   1   1.0000     -37.931194     -1032.1603
   2   1.0000      -9.058786      -246.5021
   3   1.0000      -6.875672      -187.0965
   4   1.0000      -6.874158      -187.0554
   5   1.0000      -6.874158      -187.0554
   6   1.0000      -2.099991       -57.1437
   7   1.0000      -1.076259       -29.2865
   8   1.0000      -1.076259       -29.2865
   9   1.0000      -1.074224       -29.2311
  10   1.0000      -0.619590       -16.8599
  11   1.0000      -0.211207        -5.7472
  12   1.0000      -0.193669        -5.2700
  13   1.0000      -0.193669        -5.2700
  14   0.0000      -0.086630        -2.3573
  15   0.0000      -0.014769        -0.4019
  16   0.0000      -0.014769        -0.4019
  17   0.0000      -0.012097        -0.3292
  18   0.0000       0.003666         0.0998

                 SPIN DOWN ORBITALS
  NO   OCC          E(Eh)            E(eV)
   0   1.0000    -100.534185     -2735.6743
   1   1.0000     -37.931194     -1032.1603
   2   1.0000      -9.058786      -246.5021
   3   1.0000      -6.875672      -187.0965
   4   1.0000      -6.874158      -187.0554
   5   1.0000      -6.874158      -187.0554
   6   1.0000      -2.099991       -57.1437
   7   1.0000      -1.076259       -29.2865
   8   1.0000      -1.076259       -29.2865
   9   1.0000      -1.074224       -29.2311
  10   1.0000      -0.619590       -16.8599
  11   1.0000      -0.211207        -5.7472
  12   1.0000      -0.193669        -5.2700
  13   1.0000      -0.193669        -5.2700
  14   0.0000      -0.086630        -2.3573
  15   0.0000      -0.014769        -0.4019
  16   0.0000      -0.014769        -0.4019
  17   0.0000      -0.012097        -0.3292
  18   0.0000       0.003666         0.0998

MULLIKEN ATOMIC CHARGES AND SPIN POPULATIONS
--------------------------------------------
   0 Na:    0.665696    0.000000
   1 Cl:   -0.665696   -0.000000
Sum of atomic charges         :   -0.0000000

LOEWDIN ATOMIC CHARGES AND SPIN POPULATIONS
-------------------------------------------
   0 Na:    0.651651   -0.000000
   1 Cl:   -0.651651   -0.000000

  Mayer bond orders larger than 0.1
B(  0-Na,  1-Cl) :   0.6218

FINAL SINGLE POINT ENERGY      -622.293862708148

DIPOLE MOMENT
-------------
                                X             Y             Z
Electronic contribution:     -0.00000      -0.00000      -3.35913
Nuclear contribution   :      0.00000       0.00000       0.06466
                        -----------------------------------------
Total Dipole Moment    :     -0.00000      -0.00000      -3.29447
                        -----------------------------------------
Magnitude (a.u.)       :      3.29447
Magnitude (Debye)      :      8.37388

Rotational constants in cm-1:     0.000000     0.216880     0.216880
Rotational constants in MHz :     0.000000  6501.891981  6501.891981

                             ****ORCA TERMINATED NORMALLY****
TOTAL RUN TIME: 0 days 0 hours 4 minutes 5 seconds 117 msec
