                         Program Version 4.1.2  - RELEASE  -
|  1> !uks pbe nori aug-pc-4 grid5 nofinalgrid verytightscf
|  2>
|  3> %maxcore 6000
|  4>
|  5> %pal nprocs 4 end
|  6>
|  7> %scf
|  8> 	efield 0.001, 0.0, 0.0
|  9> 	maxiter 200
| 10> end
| 11>
| 12> * xyz 0 1
| 13> Na 0.0000 0.0000 0.0000
| 14> Cl 0.0000 0.0000 2.3608
| 15> *
| 16>
| 17>                          ****END OF INPUT****

CARTESIAN COORDINATES (ANGSTROEM)
---------------------------------
  Na     0.000000    0.000000    0.000000
  Cl     0.000000    0.000000    2.360800

 Total Charge           Charge          ....    0
 Multiplicity           Mult            ....    1
 Number of Electrons    NEL             ....   28
 Basis Dimension        Dim             ....  226

ORBITAL ENERGIES
----------------
                 SPIN UP ORBITALS
  NO   OCC          E(Eh)            E(eV)
   0   1.0000    -100.534687     -2735.6879
   1   1.0000     -37.929785     -1032.1219
   2   1.0000      -9.059333      -246.5170
   3   1.0000      -6.876174      -187.1102
   4   1.0000      -6.874722      -187.0707
   5   1.0000      -6.874721      -187.0707
   6   1.0000      -2.098594       -57.1057
   7   1.0000      -1.074862       -29.2485
   8   1.0000      -1.074862       -29.2485
   9   1.0000      -1.072825       -29.1931
  10   1.0000      -0.620323       -16.8798
  11   1.0000      -0.211891        -5.7659
  12   1.0000      -0.194516        -5.2930
  13   1.0000      -0.194513        -5.2930
  14   0.0000      -0.082453        -2.2437
  15   0.0000      -0.011729        -0.3192
  16   0.0000      -0.010550        -0.2871
  17   0.0000      -0.001915        -0.0521
  18   0.0000       0.003710         0.1009

                 SPIN DOWN ORBITALS
  NO   OCC          E(Eh)            E(eV)
   0   1.0000    -100.534687     -2735.6879
   1   1.0000     -37.929785     -1032.1219
   2   1.0000      -9.059333      -246.5170
   3   1.0000      -6.876174      -187.1102
   4   1.0000      -6.874722      -187.0707
   5   1.0000      -6.874721      -187.0707
   6   1.0000      -2.098594       -57.1057
   7   1.0000      -1.074862       -29.2485
   8   1.0000      -1.074862       -29.2485
   9   1.0000      -1.072825       -29.1931
  10   1.0000      -0.620323       -16.8798
  11   1.0000      -0.211891        -5.7659
  12   1.0000      -0.194516        -5.2930
  13   1.0000      -0.194513        -5.2930
  14   0.0000      -0.082453        -2.2437
  15   0.0000      -0.011729        -0.3192
  16   0.0000      -0.010550        -0.2871
  17   0.0000      -0.001915        -0.0521
  18   0.0000       0.003710         0.1009

MULLIKEN ATOMIC CHARGES AND SPIN POPULATIONS
--------------------------------------------
   0 Na:    0.670240    0.000000
   1 Cl:   -0.670240   -0.000000
Sum of atomic charges         :   -0.0000000

LOEWDIN ATOMIC CHARGES AND SPIN POPULATIONS
-------------------------------------------
   0 Na:    0.654910   -0.000000
   1 Cl:   -0.654910   -0.000000

  Mayer bond orders larger than 0.1
B(  0-Na,  1-Cl) :   0.6110

FINAL SINGLE POINT ENERGY      -622.297196578071

DIPOLE MOMENT
-------------
                                X             Y             Z
Electronic contribution:      0.03277      -0.00000      -3.40483
Nuclear contribution   :      0.00000       0.00000       0.06466
                        -----------------------------------------
Total Dipole Moment    :      0.03277      -0.00000      -3.34017
                        -----------------------------------------
Magnitude (a.u.)       :      3.34033
Magnitude (Debye)      :      8.49044

Rotational constants in cm-1:     0.000000     0.216880     0.216880
Rotational constants in MHz :     0.000000  6501.891981  6501.891981

                             ****ORCA TERMINATED NORMALLY****
TOTAL RUN TIME: 0 days 0 hours 4 minutes 4 seconds 513 msec
