                         Program Version 4.1.2  - RELEASE  -
|  1> !uks pbe nori aug-pc-4 grid5 nofinalgrid verytightscf
|  2>
|  3> %maxcore 6000
|  4>
|  5> %pal nprocs 4 end
|  6>
|  7> %scf
|  8> 	efield 0.0, 0.0, 0.0
|  9> 	maxiter 200
| 10> end
| 11>
| 12> * xyz 0 1
| 13> Na 0.0000 0.0000 0.0000
| 14> Cl 0.0000 0.0000 2.3608
| 15> *
| 16>
| 17>                          ****END OF INPUT****

CARTESIAN COORDINATES (ANGSTROEM)
---------------------------------
  Na     0.000000    0.000000    0.000000
  Cl     0.000000    0.000000    2.360800

 Total Charge           Charge          ....    0
 Multiplicity           Mult            ....    1
 Number of Electrons    NEL             ....   28
 Basis Dimension        Dim             ....  226

ORBITAL ENERGIES
----------------
                 SPIN UP ORBITALS
  NO   OCC          E(Eh)            E(eV)
   0   1.0000    -100.534664     -2735.6873
   1   1.0000     -37.929781     -1032.1218
   2   1.0000      -9.059311      -246.5164
   3   1.0000      -6.876151      -187.1096
   4   1.0000      -6.874699      -187.0701
   5   1.0000      -6.874699      -187.0701
   6   1.0000      -2.098590       -57.1055
   7   1.0000      -1.074858       -29.2484
   8   1.0000      -1.074858       -29.2484
   9   1.0000      -1.072821       -29.1930
  10   1.0000      -0.620305       -16.8793
  11   1.0000      -0.211874        -5.7654
  12   1.0000      -0.194497        -5.2925
  13   1.0000      -0.194497        -5.2925
  14   0.0000      -0.082372        -2.2414
  15   0.0000      -0.010320        -0.2808
  16   0.0000      -0.010320        -0.2808
  17   0.0000      -0.000721        -0.0196
  18   0.0000       0.005287         0.1439

                 SPIN DOWN ORBITALS
  NO   OCC          E(Eh)            E(eV)
   0   1.0000    -100.534664     -2735.6873
   1   1.0000     -37.929781     -1032.1218
   2   1.0000      -9.059311      -246.5164
   3   1.0000      -6.876151      -187.1096
   4   1.0000      -6.874699      -187.0701
   5   1.0000      -6.874699      -187.0701
   6   1.0000      -2.098590       -57.1055
   7   1.0000      -1.074858       -29.2484
   8   1.0000      -1.074858       -29.2484
   9   1.0000      -1.072821       -29.1930
  10   1.0000      -0.620305       -16.8793
  11   1.0000      -0.211874        -5.7654
  12   1.0000      -0.194497        -5.2925
  13   1.0000      -0.194497        -5.2925
  14   0.0000      -0.082372        -2.2414
  15   0.0000      -0.010320        -0.2808
  16   0.0000      -0.010320        -0.2808
  17   0.0000      -0.000721        -0.0196
  18   0.0000       0.005287         0.1439

MULLIKEN ATOMIC CHARGES AND SPIN POPULATIONS
--------------------------------------------
   0 Na:    0.670369   -0.000000
   1 Cl:   -0.670369    0.000000
Sum of atomic charges         :   -0.0000000

LOEWDIN ATOMIC CHARGES AND SPIN POPULATIONS
-------------------------------------------
   0 Na:    0.654946   -0.000000
   1 Cl:   -0.654946    0.000000

  Mayer bond orders larger than 0.1
B(  0-Na,  1-Cl) :   0.6108

FINAL SINGLE POINT ENERGY      -622.297180193095

DIPOLE MOMENT
-------------
                                X             Y             Z
Electronic contribution:     -0.00000      -0.00000      -3.40493
Nuclear contribution   :      0.00000       0.00000       0.06466
                        -----------------------------------------
Total Dipole Moment    :     -0.00000      -0.00000      -3.34028
                        -----------------------------------------
Magnitude (a.u.)       :      3.34028
Magnitude (Debye)      :      8.49031

Rotational constants in cm-1:     0.000000     0.216880     0.216880
Rotational constants in MHz :     0.000000  6501.891981  6501.891981

                             ****ORCA TERMINATED NORMALLY****
TOTAL RUN TIME: 0 days 0 hours 4 minutes 6 seconds 472 msec
