                         Program Version 4.1.2  - RELEASE  -
|  1> !uks pbe nori aug-pc-4 grid5 nofinalgrid verytightscf
|  2>
|  3> %maxcore 6000
|  4>
|  5> %pal nprocs 4 end
|  6>
|  7> %scf
|  8> 	efield 0.0, -0.001, 0.0
|  9> 	maxiter 200
| 10> end
| 11>
| 12> * xyz 0 1
| 13> C 1.0848000000 0.6433000000 0.0000000000
| 14> N 0.0000000000 1.1328000000 0.0000000000
| 15> Na -0.5917000000 -1.0717000000 0.0000000000
| 16> *
| 17>
| 18>                          ****END OF INPUT****

CARTESIAN COORDINATES (ANGSTROEM)
---------------------------------
  C      1.084800    0.643300    0.000000
  N      0.000000    1.132800    0.000000
  Na    -0.591700   -1.071700    0.000000

 Total Charge           Charge          ....    0
 Multiplicity           Mult            ....    1
 Number of Electrons    NEL             ....   24
 Basis Dimension        Dim             ....  375

ORBITAL ENERGIES
----------------
                 SPIN UP ORBITALS
  NO   OCC          E(Eh)            E(eV)
   0   1.0000     -37.941129     -1032.4306
   1   1.0000     -13.920518      -378.7965
   2   1.0000      -9.839673      -267.7511
   3   1.0000      -2.108827       -57.3841
   4   1.0000      -1.085185       -29.5294
   5   1.0000      -1.084706       -29.5164
   6   1.0000      -1.083247       -29.4767
   7   1.0000      -0.752835       -20.4857
   8   1.0000      -0.319109        -8.6834
   9   1.0000      -0.261074        -7.1042
  10   1.0000      -0.246470        -6.7068
  11   1.0000      -0.199548        -5.4300
  12   0.0000      -0.078239        -2.1290
  13   0.0000      -0.012266        -0.3338
  14   0.0000      -0.008363        -0.2276
  15   0.0000       0.003933         0.1070
  16   0.0000       0.009667         0.2630

                 SPIN DOWN ORBITALS
  NO   OCC          E(Eh)            E(eV)
   0   1.0000     -37.941129     -1032.4306
   1   1.0000     -13.920518      -378.7965
   2   1.0000      -9.839673      -267.7511
   3   1.0000      -2.108827       -57.3841
   4   1.0000      -1.085185       -29.5294
   5   1.0000      -1.084706       -29.5164
   6   1.0000      -1.083247       -29.4767
   7   1.0000      -0.752835       -20.4857
   8   1.0000      -0.319109        -8.6834
   9   1.0000      -0.261074        -7.1042
  10   1.0000      -0.246470        -6.7068
  11   1.0000      -0.199548        -5.4300
  12   0.0000      -0.078239        -2.1290
  13   0.0000      -0.012266        -0.3338
  14   0.0000      -0.008363        -0.2276
  15   0.0000       0.003933         0.1070
  16   0.0000       0.009667         0.2630

MULLIKEN ATOMIC CHARGES AND SPIN POPULATIONS
--------------------------------------------
   0 C :   -0.253570    0.000000
   1 N :   -0.434205   -0.000000
   2 Na:    0.687775    0.000000
Sum of atomic charges         :   -0.0000000

LOEWDIN ATOMIC CHARGES AND SPIN POPULATIONS
-------------------------------------------
   0 C :   -0.506707    0.000000
   1 N :   -0.536875   -0.000000
   2 Na:    1.043582   -0.000000

  Mayer bond orders larger than 0.1
B(  0-C ,  1-N ) :   2.4618 B(  0-C ,  2-Na) :   0.1782 B(  1-N ,  2-Na) :   0.3212

FINAL SINGLE POINT ENERGY      -254.975095741395

DIPOLE MOMENT
-------------
                                X             Y             Z
Electronic contribution:     -2.30629      -3.86620      -0.00000
Nuclear contribution   :      0.53106       0.96800       0.00000
                        -----------------------------------------
Total Dipole Moment    :     -1.77523      -2.89819      -0.00000
                        -----------------------------------------
Magnitude (a.u.)       :      3.39867
Magnitude (Debye)      :      8.63873

Rotational constants in cm-1:     1.854688     0.270089     0.235757
Rotational constants in MHz : 55602.151725  8097.075355  7067.822217

                             ****ORCA TERMINATED NORMALLY****
TOTAL RUN TIME: 0 days 0 hours 15 minutes 41 seconds 974 msec
