                         Program Version 4.1.2  - RELEASE  -
|  1> !uks pbe nori aug-pc-4 grid5 nofinalgrid verytightscf
|  2>
|  3> %maxcore 6000
|  4>
|  5> %pal nprocs 4 end
|  6>
|  7> %scf
|  8> 	efield 0.0, 0.0, 0.0
|  9> 	maxiter 200
| 10> end
| 11>
| 12> * xyz 0 1
| 13> C 1.0848000000 0.6433000000 0.0000000000
| 14> N 0.0000000000 1.1328000000 0.0000000000
| 15> Na -0.5917000000 -1.0717000000 0.0000000000
| 16> *
| 17>
| 18>                          ****END OF INPUT****

CARTESIAN COORDINATES (ANGSTROEM)
---------------------------------
  C      1.084800    0.643300    0.000000
  N      0.000000    1.132800    0.000000
  Na    -0.591700   -1.071700    0.000000

 Total Charge           Charge          ....    0
 Multiplicity           Mult            ....    1
 Number of Electrons    NEL             ....   24
 Basis Dimension        Dim             ....  375

ORBITAL ENERGIES
----------------
                 SPIN UP ORBITALS
  NO   OCC          E(Eh)            E(eV)
   0   1.0000     -37.942273     -1032.4617
   1   1.0000     -13.919541      -378.7700
   2   1.0000      -9.838791      -267.7271
   3   1.0000      -2.109963       -57.4150
   4   1.0000      -1.086324       -29.5604
   5   1.0000      -1.085837       -29.5471
   6   1.0000      -1.084378       -29.5074
   7   1.0000      -0.751764       -20.4565
   8   1.0000      -0.317895        -8.6504
   9   1.0000      -0.260069        -7.0768
  10   1.0000      -0.245335        -6.6759
  11   1.0000      -0.198599        -5.4042
  12   0.0000      -0.081682        -2.2227
  13   0.0000      -0.014646        -0.3985
  14   0.0000      -0.011476        -0.3123
  15   0.0000      -0.000669        -0.0182
  16   0.0000       0.008800         0.2395

                 SPIN DOWN ORBITALS
  NO   OCC          E(Eh)            E(eV)
   0   1.0000     -37.942273     -1032.4617
   1   1.0000     -13.919541      -378.7700
   2   1.0000      -9.838791      -267.7271
   3   1.0000      -2.109963       -57.4150
   4   1.0000      -1.086324       -29.5604
   5   1.0000      -1.085837       -29.5471
   6   1.0000      -1.084378       -29.5074
   7   1.0000      -0.751764       -20.4565
   8   1.0000      -0.317895        -8.6504
   9   1.0000      -0.260069        -7.0768
  10   1.0000      -0.245335        -6.6759
  11   1.0000      -0.198599        -5.4042
  12   0.0000      -0.081682        -2.2227
  13   0.0000      -0.014646        -0.3985
  14   0.0000      -0.011476        -0.3123
  15   0.0000      -0.000669        -0.0182
  16   0.0000       0.008800         0.2395

MULLIKEN ATOMIC CHARGES AND SPIN POPULATIONS
--------------------------------------------
   0 C :   -0.256075   -0.000000
   1 N :   -0.431082    0.000000
   2 Na:    0.687157    0.000000
Sum of atomic charges         :   -0.0000000

LOEWDIN ATOMIC CHARGES AND SPIN POPULATIONS
-------------------------------------------
   0 C :   -0.506220    0.000000
   1 N :   -0.535916   -0.000000
   2 Na:    1.042136    0.000000

  Mayer bond orders larger than 0.1
B(  0-C ,  1-N ) :   2.4649 B(  0-C ,  2-Na) :   0.1810 B(  1-N ,  2-Na) :   0.3236

FINAL SINGLE POINT ENERGY      -254.972214258693

DIPOLE MOMENT
-------------
                                X             Y             Z
Electronic contribution:     -2.30507      -3.83268      -0.00000
Nuclear contribution   :      0.53106       0.96800       0.00000
                        -----------------------------------------
Total Dipole Moment    :     -1.77401      -2.86468      -0.00000
                        -----------------------------------------
Magnitude (a.u.)       :      3.36950
Magnitude (Debye)      :      8.56458

Rotational constants in cm-1:     1.854688     0.270089     0.235757
Rotational constants in MHz : 55602.151725  8097.075355  7067.822217

                             ****ORCA TERMINATED NORMALLY****
TOTAL RUN TIME: 0 days 0 hours 15 minutes 38 seconds 349 msec
