                         Program Version 4.1.2  - RELEASE  -
|  1> !uks pbe nori aug-pc-4 grid5 nofinalgrid verytightscf
|  2>
|  3> %maxcore 6000
|  4>
|  5> %pal nprocs 4 end
|  6>
|  7> %scf
|  8> 	efield 0.0, 0.001, 0.0
|  9> 	maxiter 200
| 10> end
| 11>
| 12> * xyz 0 1
| 13> C 1.0848000000 0.6433000000 0.0000000000
| 14> N 0.0000000000 1.1328000000 0.0000000000
| 15> Na -0.5917000000 -1.0717000000 0.0000000000
| 16> *
| 17>
| 18>                          ****END OF INPUT****

CARTESIAN COORDINATES (ANGSTROEM)
---------------------------------
  C      1.084800    0.643300    0.000000
  N      0.000000    1.132800    0.000000
  Na    -0.591700   -1.071700    0.000000

 Total Charge           Charge          ....    0
 Multiplicity           Mult            ....    1
 Number of Electrons    NEL             ....   24
 Basis Dimension        Dim             ....  375

ORBITAL ENERGIES
----------------
                 SPIN UP ORBITALS
  NO   OCC          E(Eh)            E(eV)
   0   1.0000     -37.943414     -1032.4928
   1   1.0000     -13.918610      -378.7446
   2   1.0000      -9.837961      -267.7045
   3   1.0000      -2.111097       -57.4459
   4   1.0000      -1.087460       -29.5913
   5   1.0000      -1.086964       -29.5778
   6   1.0000      -1.085506       -29.5381
   7   1.0000      -0.750734       -20.4285
   8   1.0000      -0.316721        -8.6184
   9   1.0000      -0.259107        -7.0507
  10   1.0000      -0.244238        -6.6460
  11   1.0000      -0.197689        -5.3794
  12   0.0000      -0.085248        -2.3197
  13   0.0000      -0.017756        -0.4832
  14   0.0000      -0.015004        -0.4083
  15   0.0000      -0.011128        -0.3028
  16   0.0000       0.006253         0.1701

                 SPIN DOWN ORBITALS
  NO   OCC          E(Eh)            E(eV)
   0   1.0000     -37.943414     -1032.4928
   1   1.0000     -13.918610      -378.7446
   2   1.0000      -9.837961      -267.7045
   3   1.0000      -2.111097       -57.4459
   4   1.0000      -1.087460       -29.5913
   5   1.0000      -1.086964       -29.5778
   6   1.0000      -1.085506       -29.5381
   7   1.0000      -0.750734       -20.4285
   8   1.0000      -0.316721        -8.6184
   9   1.0000      -0.259107        -7.0507
  10   1.0000      -0.244238        -6.6460
  11   1.0000      -0.197689        -5.3794
  12   0.0000      -0.085248        -2.3197
  13   0.0000      -0.017756        -0.4832
  14   0.0000      -0.015004        -0.4083
  15   0.0000      -0.011128        -0.3028
  16   0.0000       0.006253         0.1701

MULLIKEN ATOMIC CHARGES AND SPIN POPULATIONS
--------------------------------------------
   0 C :   -0.259293    0.000000
   1 N :   -0.427482   -0.000000
   2 Na:    0.686775    0.000000
Sum of atomic charges         :   -0.0000000

LOEWDIN ATOMIC CHARGES AND SPIN POPULATIONS
-------------------------------------------
   0 C :   -0.505704    0.000000
   1 N :   -0.534919   -0.000000
   2 Na:    1.040623   -0.000000

  Mayer bond orders larger than 0.1
B(  0-C ,  1-N ) :   2.4675 B(  0-C ,  2-Na) :   0.1837 B(  1-N ,  2-Na) :   0.3257

FINAL SINGLE POINT ENERGY      -254.969366583540

DIPOLE MOMENT
-------------
                                X             Y             Z
Electronic contribution:     -2.30363      -3.79857      -0.00000
Nuclear contribution   :      0.53106       0.96800       0.00000
                        -----------------------------------------
Total Dipole Moment    :     -1.77257      -2.83056      -0.00000
                        -----------------------------------------
Magnitude (a.u.)       :      3.33977
Magnitude (Debye)      :      8.48903

Rotational constants in cm-1:     1.854688     0.270089     0.235757
Rotational constants in MHz : 55602.151725  8097.075355  7067.822217

                             ****ORCA TERMINATED NORMALLY****
TOTAL RUN TIME: 0 days 0 hours 16 minutes 38 seconds 812 msec
