                         Program Version 4.1.2  - RELEASE  -
|  1> !uks pbe nori aug-pc-4 grid5 nofinalgrid verytightscf
|  2>
|  3> %maxcore 6000
|  4>
|  5> %pal nprocs 4 end
|  6>
|  7> %scf
|  8> 	efield 0.001, 0.0, 0.0
|  9> 	maxiter 200
| 10> end
| 11>
| 12> * xyz 0 1
| 13> C 1.0848000000 0.6433000000 0.0000000000
| 14> N 0.0000000000 1.1328000000 0.0000000000
| 15> Na -0.5917000000 -1.0717000000 0.0000000000
| 16> *
| 17>
| 18>                          ****END OF INPUT****

CARTESIAN COORDINATES (ANGSTROEM)
---------------------------------
  C      1.084800    0.643300    0.000000
  N      0.000000    1.132800    0.000000
  Na    -0.591700   -1.071700    0.000000

 Total Charge           Charge          ....    0
 Multiplicity           Mult            ....    1
 Number of Electrons    NEL             ....   24
 Basis Dimension        Dim             ....  375

ORBITAL ENERGIES
----------------
                 SPIN UP ORBITALS
  NO   OCC          E(Eh)            E(eV)
   0   1.0000     -37.942790     -1032.4758
   1   1.0000     -13.918778      -378.7492
   2   1.0000      -9.838032      -267.7065
   3   1.0000      -2.110476       -57.4290
   4   1.0000      -1.086839       -29.5744
   5   1.0000      -1.086354       -29.5612
   6   1.0000      -1.084881       -29.5211
   7   1.0000      -0.751044       -20.4370
   8   1.0000      -0.317363        -8.6359
   9   1.0000      -0.259359        -7.0575
  10   1.0000      -0.244590        -6.6556
  11   1.0000      -0.197336        -5.3698
  12   0.0000      -0.083669        -2.2767
  13   0.0000      -0.016888        -0.4595
  14   0.0000      -0.013390        -0.3644
  15   0.0000      -0.007637        -0.2078
  16   0.0000       0.005310         0.1445

                 SPIN DOWN ORBITALS
  NO   OCC          E(Eh)            E(eV)
   0   1.0000     -37.942790     -1032.4758
   1   1.0000     -13.918778      -378.7492
   2   1.0000      -9.838032      -267.7065
   3   1.0000      -2.110476       -57.4290
   4   1.0000      -1.086839       -29.5744
   5   1.0000      -1.086354       -29.5612
   6   1.0000      -1.084881       -29.5211
   7   1.0000      -0.751044       -20.4370
   8   1.0000      -0.317363        -8.6359
   9   1.0000      -0.259359        -7.0575
  10   1.0000      -0.244590        -6.6556
  11   1.0000      -0.197336        -5.3698
  12   0.0000      -0.083669        -2.2767
  13   0.0000      -0.016888        -0.4595
  14   0.0000      -0.013390        -0.3644
  15   0.0000      -0.007637        -0.2078
  16   0.0000       0.005310         0.1445

MULLIKEN ATOMIC CHARGES AND SPIN POPULATIONS
--------------------------------------------
   0 C :   -0.255027   -0.000000
   1 N :   -0.433928    0.000000
   2 Na:    0.688955    0.000000
Sum of atomic charges         :    0.0000000

LOEWDIN ATOMIC CHARGES AND SPIN POPULATIONS
-------------------------------------------
   0 C :   -0.505418   -0.000000
   1 N :   -0.536010   -0.000000
   2 Na:    1.041428    0.000000

  Mayer bond orders larger than 0.1
B(  0-C ,  1-N ) :   2.4640 B(  0-C ,  2-Na) :   0.1804 B(  1-N ,  2-Na) :   0.3249

FINAL SINGLE POINT ENERGY      -254.970457547168

DIPOLE MOMENT
-------------
                                X             Y             Z
Electronic contribution:     -2.27043      -3.83124      -0.00000
Nuclear contribution   :      0.53106       0.96800       0.00000
                        -----------------------------------------
Total Dipole Moment    :     -1.73937      -2.86324      -0.00000
                        -----------------------------------------
Magnitude (a.u.)       :      3.35016
Magnitude (Debye)      :      8.51542

Rotational constants in cm-1:     1.854688     0.270089     0.235757
Rotational constants in MHz : 55602.151725  8097.075355  7067.822217

                             ****ORCA TERMINATED NORMALLY****
TOTAL RUN TIME: 0 days 0 hours 15 minutes 36 seconds 448 msec
