                         Program Version 4.1.2  - RELEASE  -
|  1> !uks pbe nori aug-pc-4 grid5 nofinalgrid verytightscf
|  2>
|  3> %maxcore 6000
|  4>
|  5> %pal nprocs 4 end
|  6>
|  7> %scf
|  8> 	efield -0.001, 0.0, 0.0
|  9> 	maxiter 200
| 10> end
| 11>
| 12> * xyz 0 1
| 13> C 1.0848000000 0.6433000000 0.0000000000
| 14> N 0.0000000000 1.1328000000 0.0000000000
| 15> Na -0.5917000000 -1.0717000000 0.0000000000
| 16> *
| 17>
| 18>                          ****END OF INPUT****

CARTESIAN COORDINATES (ANGSTROEM)
---------------------------------
  C      1.084800    0.643300    0.000000
  N      0.000000    1.132800    0.000000
  Na    -0.591700   -1.071700    0.000000

 Total Charge           Charge          ....    0
 Multiplicity           Mult            ....    1
 Number of Electrons    NEL             ....   24
 Basis Dimension        Dim             ....  375

ORBITAL ENERGIES
----------------
                 SPIN UP ORBITALS
  NO   OCC          E(Eh)            E(eV)
   0   1.0000     -37.941760     -1032.4478
   1   1.0000     -13.920344      -378.7918
   2   1.0000      -9.839593      -267.7489
   3   1.0000      -2.109454       -57.4012
   4   1.0000      -1.085813       -29.5465
   5   1.0000      -1.085324       -29.5332
   6   1.0000      -1.083879       -29.4938
   7   1.0000      -0.752518       -20.4771
   8   1.0000      -0.318466        -8.6659
   9   1.0000      -0.260812        -7.0971
  10   1.0000      -0.246113        -6.6971
  11   1.0000      -0.199892        -5.4393
  12   0.0000      -0.079844        -2.1727
  13   0.0000      -0.013744        -0.3740
  14   0.0000      -0.010044        -0.2733
  15   0.0000       0.000287         0.0078
  16   0.0000       0.007644         0.2080

                 SPIN DOWN ORBITALS
  NO   OCC          E(Eh)            E(eV)
   0   1.0000     -37.941760     -1032.4478
   1   1.0000     -13.920344      -378.7918
   2   1.0000      -9.839593      -267.7489
   3   1.0000      -2.109454       -57.4012
   4   1.0000      -1.085813       -29.5465
   5   1.0000      -1.085324       -29.5332
   6   1.0000      -1.083879       -29.4938
   7   1.0000      -0.752518       -20.4771
   8   1.0000      -0.318466        -8.6659
   9   1.0000      -0.260812        -7.0971
  10   1.0000      -0.246113        -6.6971
  11   1.0000      -0.199892        -5.4393
  12   0.0000      -0.079844        -2.1727
  13   0.0000      -0.013744        -0.3740
  14   0.0000      -0.010044        -0.2733
  15   0.0000       0.000287         0.0078
  16   0.0000       0.007644         0.2080

MULLIKEN ATOMIC CHARGES AND SPIN POPULATIONS
--------------------------------------------
   0 C :   -0.258032    0.000000
   1 N :   -0.427449   -0.000000
   2 Na:    0.685481    0.000000
Sum of atomic charges         :   -0.0000000

LOEWDIN ATOMIC CHARGES AND SPIN POPULATIONS
-------------------------------------------
   0 C :   -0.507004    0.000000
   1 N :   -0.535787   -0.000000
   2 Na:    1.042791    0.000000

  Mayer bond orders larger than 0.1
B(  0-C ,  1-N ) :   2.4655 B(  0-C ,  2-Na) :   0.1816 B(  1-N ,  2-Na) :   0.3222

FINAL SINGLE POINT ENERGY      -254.974005493188

DIPOLE MOMENT
-------------
                                X             Y             Z
Electronic contribution:     -2.33949      -3.83390      -0.00000
Nuclear contribution   :      0.53106       0.96800       0.00000
                        -----------------------------------------
Total Dipole Moment    :     -1.80843      -2.86590      -0.00000
                        -----------------------------------------
Magnitude (a.u.)       :      3.38877
Magnitude (Debye)      :      8.61358

Rotational constants in cm-1:     1.854688     0.270089     0.235757
Rotational constants in MHz : 55602.151725  8097.075355  7067.822217

                             ****ORCA TERMINATED NORMALLY****
TOTAL RUN TIME: 0 days 0 hours 15 minutes 57 seconds 628 msec
