                         Program Version 4.1.2  - RELEASE  -
|  1> !uks pbe nori aug-pc-4 grid5 nofinalgrid verytightscf
|  2>
|  3> %maxcore 6000
|  4>
|  5> %pal nprocs 4 end
|  6>
|  7> %scf
|  8> 	efield 0.0, 0.0, 0.001
|  9> 	maxiter 200
| 10> end
| 11>
| 12> * xyz 0 1
| 13> C 1.0848000000 0.6433000000 0.0000000000
| 14> N 0.0000000000 1.1328000000 0.0000000000
| 15> Na -0.5917000000 -1.0717000000 0.0000000000
| 16> *
| 17>
| 18>                          ****END OF INPUT****

CARTESIAN COORDINATES (ANGSTROEM)
---------------------------------
  C      1.084800    0.643300    0.000000
  N      0.000000    1.132800    0.000000
  Na    -0.591700   -1.071700    0.000000

 Total Charge           Charge          ....    0
 Multiplicity           Mult            ....    1
 Number of Electrons    NEL             ....   24
 Basis Dimension        Dim             ....  375

ORBITAL ENERGIES
----------------
                 SPIN UP ORBITALS
  NO   OCC          E(Eh)            E(eV)
   0   1.0000     -37.942276     -1032.4618
   1   1.0000     -13.919554      -378.7703
   2   1.0000      -9.838806      -267.7275
   3   1.0000      -2.109966       -57.4151
   4   1.0000      -1.086327       -29.5605
   5   1.0000      -1.085840       -29.5472
   6   1.0000      -1.084381       -29.5075
   7   1.0000      -0.751776       -20.4569
   8   1.0000      -0.317906        -8.6507
   9   1.0000      -0.260080        -7.0771
  10   1.0000      -0.245348        -6.6763
  11   1.0000      -0.198610        -5.4044
  12   0.0000      -0.081764        -2.2249
  13   0.0000      -0.014815        -0.4031
  14   0.0000      -0.012787        -0.3480
  15   0.0000      -0.002467        -0.0671
  16   0.0000       0.006400         0.1742

                 SPIN DOWN ORBITALS
  NO   OCC          E(Eh)            E(eV)
   0   1.0000     -37.942276     -1032.4618
   1   1.0000     -13.919554      -378.7703
   2   1.0000      -9.838806      -267.7275
   3   1.0000      -2.109966       -57.4151
   4   1.0000      -1.086327       -29.5605
   5   1.0000      -1.085840       -29.5472
   6   1.0000      -1.084381       -29.5075
   7   1.0000      -0.751776       -20.4569
   8   1.0000      -0.317906        -8.6507
   9   1.0000      -0.260080        -7.0771
  10   1.0000      -0.245348        -6.6763
  11   1.0000      -0.198610        -5.4044
  12   0.0000      -0.081764        -2.2249
  13   0.0000      -0.014815        -0.4031
  14   0.0000      -0.012787        -0.3480
  15   0.0000      -0.002467        -0.0671
  16   0.0000       0.006400         0.1742

MULLIKEN ATOMIC CHARGES AND SPIN POPULATIONS
--------------------------------------------
   0 C :   -0.255927   -0.000000
   1 N :   -0.431075    0.000000
   2 Na:    0.687002    0.000000
Sum of atomic charges         :    0.0000000

LOEWDIN ATOMIC CHARGES AND SPIN POPULATIONS
-------------------------------------------
   0 C :   -0.506211    0.000000
   1 N :   -0.535905    0.000000
   2 Na:    1.042116   -0.000000

  Mayer bond orders larger than 0.1
B(  0-C ,  1-N ) :   2.4650 B(  0-C ,  2-Na) :   0.1812 B(  1-N ,  2-Na) :   0.3237

FINAL SINGLE POINT ENERGY      -254.972227214494

DIPOLE MOMENT
-------------
                                X             Y             Z
Electronic contribution:     -2.30505      -3.83263       0.02591
Nuclear contribution   :      0.53106       0.96800       0.00000
                        -----------------------------------------
Total Dipole Moment    :     -1.77399      -2.86462       0.02591
                        -----------------------------------------
Magnitude (a.u.)       :      3.36954
Magnitude (Debye)      :      8.56468

Rotational constants in cm-1:     1.854688     0.270089     0.235757
Rotational constants in MHz : 55602.151725  8097.075355  7067.822217

                             ****ORCA TERMINATED NORMALLY****
TOTAL RUN TIME: 0 days 0 hours 15 minutes 37 seconds 711 msec
