                         Program Version 4.1.2  - RELEASE  -
|  1> !uks pbe nori aug-pc-4 grid5 nofinalgrid verytightscf
|  2>
|  3> %maxcore 6000
|  4>
|  5> %pal nprocs 4 end
|  6>
|  7> %scf
|  8> 	efield 0.0, 0.001, 0.0
|  9> 	maxiter 200
| 10> end
| 11>
| 12> * xyz 0 2
| 13> N 0.0000 0.0000 0.0000
| 14> O 0.0000 0.0000 1.1538
| 15> *
| 16>
| 17>                          ****END OF INPUT****

CARTESIAN COORDINATES (ANGSTROEM)
---------------------------------
  N      0.000000    0.000000    0.000000
  O      0.000000    0.000000    1.153800

 Total Charge           Charge          ....    0
 Multiplicity           Mult            ....    2
 Number of Electrons    NEL             ....   15
 Basis Dimension        Dim             ....  290

ORBITAL ENERGIES
----------------
                 SPIN UP ORBITALS
  NO   OCC          E(Eh)            E(eV)
   0   1.0000     -18.889869      -514.0195
   1   1.0000     -14.119330      -384.2065
   2   1.0000      -1.154623       -31.4189
   3   1.0000      -0.622343       -16.9348
   4   1.0000      -0.474574       -12.9138
   5   1.0000      -0.472775       -12.8649
   6   1.0000      -0.432242       -11.7619
   7   1.0000      -0.167273        -4.5517
   8   0.0000      -0.156806        -4.2669
   9   0.0000      -0.001962        -0.0534
  10   0.0000       0.020078         0.5464
  11   0.0000       0.022756         0.6192
  12   0.0000       0.024838         0.6759

                 SPIN DOWN ORBITALS
  NO   OCC          E(Eh)            E(eV)
   0   1.0000     -18.880972      -513.7774
   1   1.0000     -14.105613      -383.8333
   2   1.0000      -1.138075       -30.9686
   3   1.0000      -0.595003       -16.1909
   4   1.0000      -0.463799       -12.6206
   5   1.0000      -0.426176       -11.5968
   6   1.0000      -0.412270       -11.2184
   7   0.0000      -0.142340        -3.8733
   8   0.0000      -0.098282        -2.6744
   9   0.0000       0.003895         0.1060
  10   0.0000       0.025999         0.7075
  11   0.0000       0.027489         0.7480

MULLIKEN ATOMIC CHARGES AND SPIN POPULATIONS
--------------------------------------------
   0 N :    0.072827    0.626723
   1 O :   -0.072827    0.373277
Sum of atomic charges         :   -0.0000000

LOEWDIN ATOMIC CHARGES AND SPIN POPULATIONS
-------------------------------------------
   0 N :   -0.071865    0.587219
   1 O :    0.071865    0.412781

  Mayer bond orders larger than 0.1
B(  0-N ,  1-O ) :   2.1863

FINAL SINGLE POINT ENERGY      -129.825626872438

DIPOLE MOMENT
-------------
                                X             Y             Z
Electronic contribution:     -0.00000       0.01133       0.08565
Nuclear contribution   :      0.00000       0.00000       0.00458
                        -----------------------------------------
Total Dipole Moment    :     -0.00000       0.01133       0.09023
                        -----------------------------------------
Magnitude (a.u.)       :      0.09094
Magnitude (Debye)      :      0.23115

Rotational constants in cm-1:     0.000000     1.695532     1.695532
Rotational constants in MHz :     0.000000 50830.768128 50830.768128

                             ****ORCA TERMINATED NORMALLY****
TOTAL RUN TIME: 0 days 0 hours 4 minutes 44 seconds 361 msec
