                         Program Version 4.1.2  - RELEASE  -
|  1> !uks pbe nori aug-pc-4 grid5 nofinalgrid verytightscf
|  2>
|  3> %maxcore 6000
|  4>
|  5> %pal nprocs 4 end
|  6>
|  7> %scf
|  8> 	efield 0.0, 0.0, -0.001
|  9> 	maxiter 200
| 10> end
| 11>
| 12> * xyz 0 2
| 13> N 0.0000 0.0000 0.0000
| 14> O 0.0000 0.0000 1.1538
| 15> *
| 16>
| 17>                          ****END OF INPUT****

CARTESIAN COORDINATES (ANGSTROEM)
---------------------------------
  N      0.000000    0.000000    0.000000
  O      0.000000    0.000000    1.153800

 Total Charge           Charge          ....    0
 Multiplicity           Mult            ....    2
 Number of Electrons    NEL             ....   15
 Basis Dimension        Dim             ....  290

ORBITAL ENERGIES
----------------
                 SPIN UP ORBITALS
  NO   OCC          E(Eh)            E(eV)
   0   1.0000     -18.889567      -514.0113
   1   1.0000     -14.119031      -384.1984
   2   1.0000      -1.154444       -31.4140
   3   1.0000      -0.622322       -16.9342
   4   1.0000      -0.474409       -12.9093
   5   1.0000      -0.472621       -12.8607
   6   1.0000      -0.431688       -11.7468
   7   1.0000      -0.166910        -4.5419
   8   0.0000      -0.156424        -4.2565
   9   0.0000      -0.002385        -0.0649
  10   0.0000       0.022313         0.6072
  11   0.0000       0.022890         0.6229
  12   0.0000       0.025471         0.6931

                 SPIN DOWN ORBITALS
  NO   OCC          E(Eh)            E(eV)
   0   1.0000     -18.880718      -513.7705
   1   1.0000     -14.105263      -383.8237
   2   1.0000      -1.137915       -30.9642
   3   1.0000      -0.595031       -16.1916
   4   1.0000      -0.463667       -12.6170
   5   1.0000      -0.426068       -11.5939
   6   1.0000      -0.411636       -11.2012
   7   0.0000      -0.141922        -3.8619
   8   0.0000      -0.097785        -2.6609
   9   0.0000       0.002867         0.0780
  10   0.0000       0.027909         0.7594
  11   0.0000       0.028771         0.7829

MULLIKEN ATOMIC CHARGES AND SPIN POPULATIONS
--------------------------------------------
   0 N :    0.077595    0.627557
   1 O :   -0.077595    0.372443
Sum of atomic charges         :   -0.0000000

LOEWDIN ATOMIC CHARGES AND SPIN POPULATIONS
-------------------------------------------
   0 N :   -0.070668    0.588082
   1 O :    0.070668    0.411918

  Mayer bond orders larger than 0.1
B(  0-N ,  1-O ) :   2.1813

FINAL SINGLE POINT ENERGY      -129.825539089510

DIPOLE MOMENT
-------------
                                X             Y             Z
Electronic contribution:      0.00000       0.00000       0.06947
Nuclear contribution   :      0.00000       0.00000       0.00458
                        -----------------------------------------
Total Dipole Moment    :      0.00000       0.00000       0.07404
                        -----------------------------------------
Magnitude (a.u.)       :      0.07404
Magnitude (Debye)      :      0.18821

Rotational constants in cm-1:     0.000000     1.695532     1.695532
Rotational constants in MHz :     0.000000 50830.768128 50830.768128

                             ****ORCA TERMINATED NORMALLY****
TOTAL RUN TIME: 0 days 0 hours 5 minutes 11 seconds 19 msec
