                         Program Version 4.1.2  - RELEASE  -
|  1> !uks pbe nori aug-pc-4 grid5 nofinalgrid verytightscf
|  2>
|  3> %maxcore 6000
|  4>
|  5> %pal nprocs 4 end
|  6>
|  7> %scf
|  8> 	efield 0.0, 0.0, 0.001
|  9> 	maxiter 200
| 10> end
| 11>
| 12> * xyz 0 2
| 13> N 0.0000 0.0000 0.0000
| 14> O 0.0000 0.0000 1.1538
| 15> *
| 16>
| 17>                          ****END OF INPUT****

CARTESIAN COORDINATES (ANGSTROEM)
---------------------------------
  N      0.000000    0.000000    0.000000
  O      0.000000    0.000000    1.153800

 Total Charge           Charge          ....    0
 Multiplicity           Mult            ....    2
 Number of Electrons    NEL             ....   15
 Basis Dimension        Dim             ....  290

ORBITAL ENERGIES
----------------
                 SPIN UP ORBITALS
  NO   OCC          E(Eh)            E(eV)
   0   1.0000     -18.890168      -514.0276
   1   1.0000     -14.119629      -384.2146
   2   1.0000      -1.154798       -31.4237
   3   1.0000      -0.622366       -16.9354
   4   1.0000      -0.474735       -12.9182
   5   1.0000      -0.472924       -12.8689
   6   1.0000      -0.432796       -11.7770
   7   1.0000      -0.167635        -4.5616
   8   0.0000      -0.157193        -4.2774
   9   0.0000      -0.001751        -0.0477
  10   0.0000       0.019030         0.5178
  11   0.0000       0.020586         0.5602
  12   0.0000       0.023591         0.6419

                 SPIN DOWN ORBITALS
  NO   OCC          E(Eh)            E(eV)
   0   1.0000     -18.881232      -513.7844
   1   1.0000     -14.105958      -383.8426
   2   1.0000      -1.138237       -30.9730
   3   1.0000      -0.594979       -16.1902
   4   1.0000      -0.463935       -12.6243
   5   1.0000      -0.426276       -11.5996
   6   1.0000      -0.412908       -11.2358
   7   0.0000      -0.142755        -3.8846
   8   0.0000      -0.098775        -2.6878
   9   0.0000       0.004660         0.1268
  10   0.0000       0.023936         0.6513
  11   0.0000       0.026455         0.7199

MULLIKEN ATOMIC CHARGES AND SPIN POPULATIONS
--------------------------------------------
   0 N :    0.068137    0.626025
   1 O :   -0.068137    0.373975
Sum of atomic charges         :   -0.0000000

LOEWDIN ATOMIC CHARGES AND SPIN POPULATIONS
-------------------------------------------
   0 N :   -0.073058    0.586438
   1 O :    0.073058    0.413562

  Mayer bond orders larger than 0.1
B(  0-N ,  1-O ) :   2.1913

FINAL SINGLE POINT ENERGY      -129.825719494804

DIPOLE MOMENT
-------------
                                X             Y             Z
Electronic contribution:     -0.00000       0.00000       0.10180
Nuclear contribution   :      0.00000       0.00000       0.00458
                        -----------------------------------------
Total Dipole Moment    :     -0.00000       0.00000       0.10638
                        -----------------------------------------
Magnitude (a.u.)       :      0.10638
Magnitude (Debye)      :      0.27039

Rotational constants in cm-1:     0.000000     1.695532     1.695532
Rotational constants in MHz :     0.000000 50830.768128 50830.768128

                             ****ORCA TERMINATED NORMALLY****
TOTAL RUN TIME: 0 days 0 hours 4 minutes 59 seconds 783 msec
