                         Program Version 4.1.2  - RELEASE  -
|  1> !uks pbe nori aug-pc-4 grid5 nofinalgrid verytightscf
|  2>
|  3> %maxcore 6000
|  4>
|  5> %pal nprocs 4 end
|  6>
|  7> %scf
|  8> 	efield 0.0, 0.0, -0.001
|  9> 	maxiter 200
| 10> end
| 11>
| 12> * xyz 0 2
| 13> O 0.0000 0.0000 0.0000
| 14> Cl 0.0000 0.0000 1.5696
| 15> *
| 16>
| 17>                          ****END OF INPUT****

CARTESIAN COORDINATES (ANGSTROEM)
---------------------------------
  O      0.000000    0.000000    0.000000
  Cl     0.000000    0.000000    1.569600

 Total Charge           Charge          ....    0
 Multiplicity           Mult            ....    2
 Number of Electrons    NEL             ....   25
 Basis Dimension        Dim             ....  286

ORBITAL ENERGIES
----------------
                 SPIN UP ORBITALS
  NO   OCC          E(Eh)            E(eV)
   0   1.0000    -100.747816     -2741.4875
   1   1.0000     -18.840578      -512.6782
   2   1.0000      -9.265261      -252.1206
   3   1.0000      -7.089098      -192.9042
   4   1.0000      -7.083268      -192.7455
   5   1.0000      -7.074161      -192.4977
   6   1.0000      -1.011163       -27.5151
   7   1.0000      -0.723738       -19.6939
   8   1.0000      -0.449342       -12.2272
   9   1.0000      -0.430174       -11.7056
  10   1.0000      -0.397072       -10.8049
  11   1.0000      -0.282518        -7.6877
  12   1.0000      -0.243135        -6.6160
  13   0.0000      -0.094194        -2.5631
  14   0.0000      -0.007586        -0.2064
  15   0.0000       0.019607         0.5335
  16   0.0000       0.021274         0.5789
  17   0.0000       0.029194         0.7944

                 SPIN DOWN ORBITALS
  NO   OCC          E(Eh)            E(eV)
   0   1.0000    -100.745739     -2741.4309
   1   1.0000     -18.824271      -512.2344
   2   1.0000      -9.263257      -252.0660
   3   1.0000      -7.088093      -192.8768
   4   1.0000      -7.077097      -192.5776
   5   1.0000      -7.072948      -192.4647
   6   1.0000      -0.986884       -26.8545
   7   1.0000      -0.698991       -19.0205
   8   1.0000      -0.434090       -11.8122
   9   1.0000      -0.389806       -10.6072
  10   1.0000      -0.387057       -10.5324
  11   1.0000      -0.231223        -6.2919
  12   0.0000      -0.219046        -5.9605
  13   0.0000      -0.083114        -2.2616
  14   0.0000      -0.004256        -0.1158
  15   0.0000       0.021602         0.5878
  16   0.0000       0.022944         0.6243

MULLIKEN ATOMIC CHARGES AND SPIN POPULATIONS
--------------------------------------------
   0 O :   -0.128715    0.650156
   1 Cl:    0.128715    0.349844
Sum of atomic charges         :    0.0000000

LOEWDIN ATOMIC CHARGES AND SPIN POPULATIONS
-------------------------------------------
   0 O :   -0.875539    0.643684
   1 Cl:    0.875539    0.356316

  Mayer bond orders larger than 0.1
B(  0-O ,  1-Cl) :   1.6271

FINAL SINGLE POINT ENERGY      -535.119382715147

DIPOLE MOMENT
-------------
                                X             Y             Z
Electronic contribution:     -0.00000      -0.00000       1.17065
Nuclear contribution   :      0.00000       0.00000      -0.67108
                        -----------------------------------------
Total Dipole Moment    :     -0.00000      -0.00000       0.49956
                        -----------------------------------------
Magnitude (a.u.)       :      0.49956
Magnitude (Debye)      :      1.26979

Rotational constants in cm-1:     0.000000     0.620691     0.620691
Rotational constants in MHz :     0.000000 18607.843970 18607.843970

                             ****ORCA TERMINATED NORMALLY****
TOTAL RUN TIME: 0 days 0 hours 8 minutes 16 seconds 836 msec
