                         Program Version 4.1.2  - RELEASE  -
|  1> !uks pbe nori aug-pc-4 grid5 nofinalgrid verytightscf
|  2>
|  3> %maxcore 6000
|  4>
|  5> %pal nprocs 4 end
|  6>
|  7> %scf
|  8> 	efield 0.0, -0.001, 0.0
|  9> 	maxiter 200
| 10> end
| 11>
| 12> * xyz 0 2
| 13> O 0.0000 0.0000 0.0000
| 14> Cl 0.0000 0.0000 1.5696
| 15> *
| 16>
| 17>                          ****END OF INPUT****

CARTESIAN COORDINATES (ANGSTROEM)
---------------------------------
  O      0.000000    0.000000    0.000000
  Cl     0.000000    0.000000    1.569600

 Total Charge           Charge          ....    0
 Multiplicity           Mult            ....    2
 Number of Electrons    NEL             ....   25
 Basis Dimension        Dim             ....  286

ORBITAL ENERGIES
----------------
                 SPIN UP ORBITALS
  NO   OCC          E(Eh)            E(eV)
   0   1.0000    -100.747813     -2741.4874
   1   1.0000     -18.840561      -512.6777
   2   1.0000      -9.265220      -252.1195
   3   1.0000      -7.089077      -192.9036
   4   1.0000      -7.083271      -192.7456
   5   1.0000      -7.074082      -192.4956
   6   1.0000      -1.011241       -27.5173
   7   1.0000      -0.723670       -19.6921
   8   1.0000      -0.449512       -12.2318
   9   1.0000      -0.430243       -11.7075
  10   1.0000      -0.397108       -10.8058
  11   1.0000      -0.282479        -7.6867
  12   1.0000      -0.243182        -6.6173
  13   0.0000      -0.093835        -2.5534
  14   0.0000      -0.005923        -0.1612
  15   0.0000       0.021549         0.5864
  16   0.0000       0.023038         0.6269
  17   0.0000       0.027169         0.7393

                 SPIN DOWN ORBITALS
  NO   OCC          E(Eh)            E(eV)
   0   1.0000    -100.745713     -2741.4302
   1   1.0000     -18.824329      -512.2360
   2   1.0000      -9.263196      -252.0644
   3   1.0000      -7.088057      -192.8758
   4   1.0000      -7.077040      -192.5761
   5   1.0000      -7.072856      -192.4622
   6   1.0000      -0.987043       -26.8588
   7   1.0000      -0.698901       -19.0181
   8   1.0000      -0.434304       -11.8180
   9   1.0000      -0.389817       -10.6075
  10   1.0000      -0.387058       -10.5324
  11   1.0000      -0.231314        -6.2944
  12   0.0000      -0.219248        -5.9661
  13   0.0000      -0.082748        -2.2517
  14   0.0000      -0.002559        -0.0696
  15   0.0000       0.023323         0.6347
  16   0.0000       0.024740         0.6732

MULLIKEN ATOMIC CHARGES AND SPIN POPULATIONS
--------------------------------------------
   0 O :   -0.133883    0.647064
   1 Cl:    0.133883    0.352936
Sum of atomic charges         :   -0.0000000

LOEWDIN ATOMIC CHARGES AND SPIN POPULATIONS
-------------------------------------------
   0 O :   -0.877785    0.641657
   1 Cl:    0.877785    0.358343

  Mayer bond orders larger than 0.1
B(  0-O ,  1-Cl) :   1.6218

FINAL SINGLE POINT ENERGY      -535.119905362897

DIPOLE MOMENT
-------------
                                X             Y             Z
Electronic contribution:     -0.00000      -0.01709       1.19970
Nuclear contribution   :      0.00000       0.00000      -0.67108
                        -----------------------------------------
Total Dipole Moment    :     -0.00000      -0.01709       0.52862
                        -----------------------------------------
Magnitude (a.u.)       :      0.52890
Magnitude (Debye)      :      1.34435

Rotational constants in cm-1:     0.000000     0.620691     0.620691
Rotational constants in MHz :     0.000000 18607.843970 18607.843970

                             ****ORCA TERMINATED NORMALLY****
TOTAL RUN TIME: 0 days 0 hours 7 minutes 7 seconds 875 msec
