                         Program Version 4.1.2  - RELEASE  -
|  1> !uks pbe nori aug-pc-4 grid5 nofinalgrid verytightscf
|  2>
|  3> %maxcore 6000
|  4>
|  5> %pal nprocs 4 end
|  6>
|  7> %scf
|  8> 	efield 0.0, 0.0, 0.001
|  9> 	maxiter 200
| 10> end
| 11>
| 12> * xyz 0 2
| 13> O 0.0000 0.0000 0.0000
| 14> Cl 0.0000 0.0000 1.5696
| 15> *
| 16>
| 17>                          ****END OF INPUT****

CARTESIAN COORDINATES (ANGSTROEM)
---------------------------------
  O      0.000000    0.000000    0.000000
  Cl     0.000000    0.000000    1.569600

 Total Charge           Charge          ....    0
 Multiplicity           Mult            ....    2
 Number of Electrons    NEL             ....   25
 Basis Dimension        Dim             ....  286

ORBITAL ENERGIES
----------------
                 SPIN UP ORBITALS
  NO   OCC          E(Eh)            E(eV)
   0   1.0000    -100.747812     -2741.4873
   1   1.0000     -18.840548      -512.6774
   2   1.0000      -9.265183      -252.1184
   3   1.0000      -7.089059      -192.9031
   4   1.0000      -7.083277      -192.7458
   5   1.0000      -7.074006      -192.4935
   6   1.0000      -1.011322       -27.5195
   7   1.0000      -0.723606       -19.6903
   8   1.0000      -0.449683       -12.2365
   9   1.0000      -0.430315       -11.7095
  10   1.0000      -0.397147       -10.8069
  11   1.0000      -0.282442        -7.6856
  12   1.0000      -0.243230        -6.6186
  13   0.0000      -0.093504        -2.5444
  14   0.0000      -0.004103        -0.1116
  15   0.0000       0.022411         0.6098
  16   0.0000       0.024248         0.6598
  17   0.0000       0.024465         0.6657

                 SPIN DOWN ORBITALS
  NO   OCC          E(Eh)            E(eV)
   0   1.0000    -100.745690     -2741.4296
   1   1.0000     -18.824392      -512.2377
   2   1.0000      -9.263137      -252.0628
   3   1.0000      -7.088025      -192.8750
   4   1.0000      -7.076986      -192.5746
   5   1.0000      -7.072766      -192.4598
   6   1.0000      -0.987206       -26.8632
   7   1.0000      -0.698814       -19.0157
   8   1.0000      -0.434519       -11.8239
   9   1.0000      -0.389834       -10.6079
  10   1.0000      -0.387064       -10.5325
  11   1.0000      -0.231407        -6.2969
  12   0.0000      -0.219450        -5.9715
  13   0.0000      -0.082417        -2.2427
  14   0.0000      -0.000786        -0.0214
  15   0.0000       0.024466         0.6658
  16   0.0000       0.025490         0.6936

MULLIKEN ATOMIC CHARGES AND SPIN POPULATIONS
--------------------------------------------
   0 O :   -0.139213    0.643961
   1 Cl:    0.139213    0.356039
Sum of atomic charges         :    0.0000000

LOEWDIN ATOMIC CHARGES AND SPIN POPULATIONS
-------------------------------------------
   0 O :   -0.880030    0.639617
   1 Cl:    0.880030    0.360383

  Mayer bond orders larger than 0.1
B(  0-O ,  1-Cl) :   1.6169

FINAL SINGLE POINT ENERGY      -535.120439979478

DIPOLE MOMENT
-------------
                                X             Y             Z
Electronic contribution:     -0.00000      -0.00000       1.22877
Nuclear contribution   :      0.00000       0.00000      -0.67108
                        -----------------------------------------
Total Dipole Moment    :     -0.00000      -0.00000       0.55769
                        -----------------------------------------
Magnitude (a.u.)       :      0.55769
Magnitude (Debye)      :      1.41753

Rotational constants in cm-1:     0.000000     0.620691     0.620691
Rotational constants in MHz :     0.000000 18607.843970 18607.843970

                             ****ORCA TERMINATED NORMALLY****
TOTAL RUN TIME: 0 days 0 hours 7 minutes 5 seconds 6 msec
