                         Program Version 4.1.2  - RELEASE  -
|  1> !uks pbe nori aug-pc-4 grid5 nofinalgrid verytightscf
|  2>
|  3> %maxcore 6000
|  4>
|  5> %pal nprocs 4 end
|  6>
|  7> %scf
|  8> 	efield 0.0, 0.0, 0.0
|  9> 	maxiter 200
| 10> end
| 11>
| 12> * xyz 0 2
| 13> O 0.0000 0.0000 0.0000
| 14> Cl 0.0000 0.0000 1.5696
| 15> *
| 16>
| 17>                          ****END OF INPUT****

CARTESIAN COORDINATES (ANGSTROEM)
---------------------------------
  O      0.000000    0.000000    0.000000
  Cl     0.000000    0.000000    1.569600

 Total Charge           Charge          ....    0
 Multiplicity           Mult            ....    2
 Number of Electrons    NEL             ....   25
 Basis Dimension        Dim             ....  286

ORBITAL ENERGIES
----------------
                 SPIN UP ORBITALS
  NO   OCC          E(Eh)            E(eV)
   0   1.0000    -100.747807     -2741.4872
   1   1.0000     -18.840556      -512.6776
   2   1.0000      -9.265215      -252.1193
   3   1.0000      -7.089072      -192.9034
   4   1.0000      -7.083265      -192.7454
   5   1.0000      -7.074077      -192.4954
   6   1.0000      -1.011237       -27.5172
   7   1.0000      -0.723666       -19.6920
   8   1.0000      -0.449507       -12.2317
   9   1.0000      -0.430239       -11.7074
  10   1.0000      -0.397104       -10.8057
  11   1.0000      -0.282475        -7.6865
  12   1.0000      -0.243178        -6.6172
  13   0.0000      -0.093828        -2.5532
  14   0.0000      -0.005560        -0.1513
  15   0.0000       0.021321         0.5802
  16   0.0000       0.023085         0.6282
  17   0.0000       0.027622         0.7516

                 SPIN DOWN ORBITALS
  NO   OCC          E(Eh)            E(eV)
   0   1.0000    -100.745708     -2741.4301
   1   1.0000     -18.824325      -512.2359
   2   1.0000      -9.263191      -252.0642
   3   1.0000      -7.088052      -192.8757
   4   1.0000      -7.077035      -192.5759
   5   1.0000      -7.072850      -192.4620
   6   1.0000      -0.987039       -26.8587
   7   1.0000      -0.698897       -19.0180
   8   1.0000      -0.434299       -11.8179
   9   1.0000      -0.389813       -10.6074
  10   1.0000      -0.387054       -10.5323
  11   1.0000      -0.231310        -6.2943
  12   0.0000      -0.219244        -5.9659
  13   0.0000      -0.082740        -2.2515
  14   0.0000      -0.002209        -0.0601
  15   0.0000       0.023367         0.6359
  16   0.0000       0.024545         0.6679

MULLIKEN ATOMIC CHARGES AND SPIN POPULATIONS
--------------------------------------------
   0 O :   -0.133936    0.647067
   1 Cl:    0.133936    0.352933
Sum of atomic charges         :    0.0000000

LOEWDIN ATOMIC CHARGES AND SPIN POPULATIONS
-------------------------------------------
   0 O :   -0.877787    0.641656
   1 Cl:    0.877787    0.358344

  Mayer bond orders larger than 0.1
B(  0-O ,  1-Cl) :   1.6219

FINAL SINGLE POINT ENERGY      -535.119896816343

DIPOLE MOMENT
-------------
                                X             Y             Z
Electronic contribution:      0.00000      -0.00000       1.19972
Nuclear contribution   :      0.00000       0.00000      -0.67108
                        -----------------------------------------
Total Dipole Moment    :      0.00000      -0.00000       0.52863
                        -----------------------------------------
Magnitude (a.u.)       :      0.52863
Magnitude (Debye)      :      1.34368

Rotational constants in cm-1:     0.000000     0.620691     0.620691
Rotational constants in MHz :     0.000000 18607.843970 18607.843970

                             ****ORCA TERMINATED NORMALLY****
TOTAL RUN TIME: 0 days 0 hours 7 minutes 6 seconds 465 msec
