                         Program Version 4.1.2  - RELEASE  -
|  1> !uks pbe nori aug-pc-4 grid5 nofinalgrid verytightscf
|  2>
|  3> %maxcore 6000
|  4>
|  5> %pal nprocs 4 end
|  6>
|  7> %scf
|  8> 	efield 0.0, 0.0, 0.001
|  9> 	maxiter 200
| 10> end
| 11>
| 12> * xyz 0 2
| 13> O 0.0000 0.0000 0.0000
| 14> F 0.0000 0.0000 1.3541
| 15> *
| 16>
| 17>                          ****END OF INPUT****

CARTESIAN COORDINATES (ANGSTROEM)
---------------------------------
  O      0.000000    0.000000    0.000000
  F      0.000000    0.000000    1.354100

 Total Charge           Charge          ....    0
 Multiplicity           Mult            ....    2
 Number of Electrons    NEL             ....   17
 Basis Dimension        Dim             ....  290

ORBITAL ENERGIES
----------------
                 SPIN UP ORBITALS
  NO   OCC          E(Eh)            E(eV)
   0   1.0000     -24.368066      -663.0888
   1   1.0000     -18.908147      -514.5168
   2   1.0000      -1.230150       -33.4741
   3   1.0000      -0.871698       -23.7201
   4   1.0000      -0.530341       -14.4313
   5   1.0000      -0.498086       -13.5536
   6   1.0000      -0.464954       -12.6520
   7   1.0000      -0.333559        -9.0766
   8   1.0000      -0.279602        -7.6084
   9   0.0000      -0.098090        -2.6692
  10   0.0000       0.001347         0.0367
  11   0.0000       0.029345         0.7985
  12   0.0000       0.030862         0.8398
  13   0.0000       0.033055         0.8995

                 SPIN DOWN ORBITALS
  NO   OCC          E(Eh)            E(eV)
   0   1.0000     -24.362190      -662.9289
   1   1.0000     -18.887334      -513.9505
   2   1.0000      -1.213359       -33.0172
   3   1.0000      -0.829747       -22.5786
   4   1.0000      -0.513827       -13.9819
   5   1.0000      -0.457480       -12.4487
   6   1.0000      -0.453551       -12.3418
   7   1.0000      -0.263052        -7.1580
   8   0.0000      -0.241448        -6.5701
   9   0.0000      -0.078125        -2.1259
  10   0.0000       0.004074         0.1109
  11   0.0000       0.030736         0.8364
  12   0.0000       0.032774         0.8918

MULLIKEN ATOMIC CHARGES AND SPIN POPULATIONS
--------------------------------------------
   0 O :   -0.018757    0.833142
   1 F :    0.018757    0.166858
Sum of atomic charges         :   -0.0000000

LOEWDIN ATOMIC CHARGES AND SPIN POPULATIONS
-------------------------------------------
   0 O :    0.134011    0.726064
   1 F :   -0.134011    0.273936

  Mayer bond orders larger than 0.1
B(  0-O ,  1-F ) :   1.2043

FINAL SINGLE POINT ENERGY      -174.806176273508

DIPOLE MOMENT
-------------
                                X             Y             Z
Electronic contribution:     -0.00000      -0.00000       0.67525
Nuclear contribution   :      0.00000       0.00000      -0.58442
                        -----------------------------------------
Total Dipole Moment    :     -0.00000      -0.00000       0.09083
                        -----------------------------------------
Magnitude (a.u.)       :      0.09083
Magnitude (Debye)      :      0.23086

Rotational constants in cm-1:     0.000000     1.058584     1.058584
Rotational constants in MHz :     0.000000 31735.564190 31735.564190

                             ****ORCA TERMINATED NORMALLY****
TOTAL RUN TIME: 0 days 0 hours 4 minutes 38 seconds 331 msec
