                         Program Version 4.1.2  - RELEASE  -
|  1> !uks pbe nori aug-pc-4 grid5 nofinalgrid verytightscf
|  2>
|  3> %maxcore 6000
|  4>
|  5> %pal nprocs 4 end
|  6>
|  7> %scf
|  8> 	efield 0.0, 0.001, 0.0
|  9> 	maxiter 200
| 10> end
| 11>
| 12> * xyz 0 2
| 13> O 0.0000 0.0000 0.0000
| 14> F 0.0000 0.0000 1.3541
| 15> *
| 16>
| 17>                          ****END OF INPUT****

CARTESIAN COORDINATES (ANGSTROEM)
---------------------------------
  O      0.000000    0.000000    0.000000
  F      0.000000    0.000000    1.354100

 Total Charge           Charge          ....    0
 Multiplicity           Mult            ....    2
 Number of Electrons    NEL             ....   17
 Basis Dimension        Dim             ....  290

ORBITAL ENERGIES
----------------
                 SPIN UP ORBITALS
  NO   OCC          E(Eh)            E(eV)
   0   1.0000     -24.367859      -663.0832
   1   1.0000     -18.907762      -514.5064
   2   1.0000      -1.230067       -33.4718
   3   1.0000      -0.871403       -23.7121
   4   1.0000      -0.530069       -14.4239
   5   1.0000      -0.497953       -13.5500
   6   1.0000      -0.464946       -12.6518
   7   1.0000      -0.333225        -9.0675
   8   1.0000      -0.279136        -7.5957
   9   0.0000      -0.097744        -2.6598
  10   0.0000       0.001320         0.0359
  11   0.0000       0.030940         0.8419
  12   0.0000       0.032319         0.8795
  13   0.0000       0.034523         0.9394

                 SPIN DOWN ORBITALS
  NO   OCC          E(Eh)            E(eV)
   0   1.0000     -24.362033      -662.9246
   1   1.0000     -18.886901      -513.9387
   2   1.0000      -1.213341       -33.0167
   3   1.0000      -0.829407       -22.5693
   4   1.0000      -0.513521       -13.9736
   5   1.0000      -0.457518       -12.4497
   6   1.0000      -0.453627       -12.3438
   7   1.0000      -0.262543        -7.1441
   8   0.0000      -0.240829        -6.5533
   9   0.0000      -0.077750        -2.1157
  10   0.0000       0.003884         0.1057
  11   0.0000       0.032202         0.8763
  12   0.0000       0.034196         0.9305

MULLIKEN ATOMIC CHARGES AND SPIN POPULATIONS
--------------------------------------------
   0 O :   -0.015662    0.834913
   1 F :    0.015662    0.165087
Sum of atomic charges         :    0.0000000

LOEWDIN ATOMIC CHARGES AND SPIN POPULATIONS
-------------------------------------------
   0 O :    0.135467    0.727367
   1 F :   -0.135467    0.272633

  Mayer bond orders larger than 0.1
B(  0-O ,  1-F ) :   1.1996

FINAL SINGLE POINT ENERGY      -174.806096734146

DIPOLE MOMENT
-------------
                                X             Y             Z
Electronic contribution:      0.00000       0.00799       0.66067
Nuclear contribution   :      0.00000       0.00000      -0.58442
                        -----------------------------------------
Total Dipole Moment    :      0.00000       0.00799       0.07624
                        -----------------------------------------
Magnitude (a.u.)       :      0.07666
Magnitude (Debye)      :      0.19486

Rotational constants in cm-1:     0.000000     1.058584     1.058584
Rotational constants in MHz :     0.000000 31735.564190 31735.564190

                             ****ORCA TERMINATED NORMALLY****
TOTAL RUN TIME: 0 days 0 hours 4 minutes 40 seconds 339 msec
