                         Program Version 4.1.2  - RELEASE  -
|  1> !uks pbe nori aug-pc-4 grid5 nofinalgrid verytightscf
|  2>
|  3> %maxcore 6000
|  4>
|  5> %pal nprocs 4 end
|  6>
|  7> %scf
|  8> 	efield 0.0, 0.0, -0.001
|  9> 	maxiter 200
| 10> end
| 11>
| 12> * xyz 0 2
| 13> O 0.0000 0.0000 0.0000
| 14> F 0.0000 0.0000 1.3541
| 15> *
| 16>
| 17>                          ****END OF INPUT****

CARTESIAN COORDINATES (ANGSTROEM)
---------------------------------
  O      0.000000    0.000000    0.000000
  F      0.000000    0.000000    1.354100

 Total Charge           Charge          ....    0
 Multiplicity           Mult            ....    2
 Number of Electrons    NEL             ....   17
 Basis Dimension        Dim             ....  290

ORBITAL ENERGIES
----------------
                 SPIN UP ORBITALS
  NO   OCC          E(Eh)            E(eV)
   0   1.0000     -24.367657      -663.0777
   1   1.0000     -18.907376      -514.4959
   2   1.0000      -1.229986       -33.4696
   3   1.0000      -0.871110       -23.7041
   4   1.0000      -0.529798       -14.4165
   5   1.0000      -0.497822       -13.5464
   6   1.0000      -0.464942       -12.6517
   7   1.0000      -0.332891        -9.0584
   8   1.0000      -0.278668        -7.5829
   9   0.0000      -0.097415        -2.6508
  10   0.0000       0.001201         0.0327
  11   0.0000       0.031732         0.8635
  12   0.0000       0.033356         0.9077
  13   0.0000       0.036069         0.9815

                 SPIN DOWN ORBITALS
  NO   OCC          E(Eh)            E(eV)
   0   1.0000     -24.361880      -662.9205
   1   1.0000     -18.886468      -513.9269
   2   1.0000      -1.213325       -33.0163
   3   1.0000      -0.829069       -22.5601
   4   1.0000      -0.513216       -13.9653
   5   1.0000      -0.457560       -12.4508
   6   1.0000      -0.453707       -12.3460
   7   1.0000      -0.262033        -7.1303
   8   0.0000      -0.240208        -6.5364
   9   0.0000      -0.077401        -2.1062
  10   0.0000       0.003566         0.0970
  11   0.0000       0.033244         0.9046
  12   0.0000       0.034848         0.9482

MULLIKEN ATOMIC CHARGES AND SPIN POPULATIONS
--------------------------------------------
   0 O :   -0.012528    0.836672
   1 F :    0.012528    0.163328
Sum of atomic charges         :    0.0000000

LOEWDIN ATOMIC CHARGES AND SPIN POPULATIONS
-------------------------------------------
   0 O :    0.136921    0.728663
   1 F :   -0.136921    0.271337

  Mayer bond orders larger than 0.1
B(  0-O ,  1-F ) :   1.1950

FINAL SINGLE POINT ENERGY      -174.806023781859

DIPOLE MOMENT
-------------
                                X             Y             Z
Electronic contribution:     -0.00000      -0.00000       0.64610
Nuclear contribution   :      0.00000       0.00000      -0.58442
                        -----------------------------------------
Total Dipole Moment    :     -0.00000      -0.00000       0.06168
                        -----------------------------------------
Magnitude (a.u.)       :      0.06168
Magnitude (Debye)      :      0.15678

Rotational constants in cm-1:     0.000000     1.058584     1.058584
Rotational constants in MHz :     0.000000 31735.564190 31735.564190

                             ****ORCA TERMINATED NORMALLY****
TOTAL RUN TIME: 0 days 0 hours 4 minutes 39 seconds 11 msec
