                         Program Version 4.1.2  - RELEASE  -
|  1> !uks pbe nori aug-pc-4 grid5 nofinalgrid verytightscf
|  2>
|  3> %maxcore 6000
|  4>
|  5> %pal nprocs 4 end
|  6>
|  7> %scf
|  8> 	efield 0.0, 0.0, -0.001
|  9> 	maxiter 200
| 10> end
| 11>
| 12> * xyz 0 2
| 13> H 0 0 0
| 14> O 0 0 0.9697
| 15> *
| 16>
| 17>                          ****END OF INPUT****

CARTESIAN COORDINATES (ANGSTROEM)
---------------------------------
  H      0.000000    0.000000    0.000000
  O      0.000000    0.000000    0.969700

 Total Charge           Charge          ....    0
 Multiplicity           Mult            ....    2
 Number of Electrons    NEL             ....    9
 Basis Dimension        Dim             ....  233

ORBITAL ENERGIES
----------------
                 SPIN UP ORBITALS
  NO   OCC          E(Eh)            E(eV)
   0   1.0000     -18.827815      -512.3309
   1   1.0000      -0.935145       -25.4466
   2   1.0000      -0.429998       -11.7008
   3   1.0000      -0.367228        -9.9928
   4   1.0000      -0.294067        -8.0020
   5   0.0000      -0.027622        -0.7516
   6   0.0000       0.026221         0.7135
   7   0.0000       0.030484         0.8295
   8   0.0000       0.032726         0.8905
   9   0.0000       0.045632         1.2417

                 SPIN DOWN ORBITALS
  NO   OCC          E(Eh)            E(eV)
   0   1.0000     -18.804179      -511.6877
   1   1.0000      -0.877419       -23.8758
   2   1.0000      -0.407061       -11.0767
   3   1.0000      -0.271398        -7.3851
   4   0.0000      -0.237107        -6.4520
   5   0.0000      -0.022427        -0.6103
   6   0.0000       0.027205         0.7403
   7   0.0000       0.032721         0.8904
   8   0.0000       0.037575         1.0225

MULLIKEN ATOMIC CHARGES AND SPIN POPULATIONS
--------------------------------------------
   0 H :    0.205003    0.004030
   1 O :   -0.205003    0.995970
Sum of atomic charges         :   -0.0000000

LOEWDIN ATOMIC CHARGES AND SPIN POPULATIONS
-------------------------------------------
   0 H :   -0.872401    0.180055
   1 O :    0.872401    0.819945

  Mayer bond orders larger than 0.1
B(  0-H ,  1-O ) :   1.0399

FINAL SINGLE POINT ENERGY       -75.690852317023

DIPOLE MOMENT
-------------
                                X             Y             Z
Electronic contribution:     -0.00000       0.00000       0.21842
Nuclear contribution   :      0.00000       0.00000      -0.85498
                        -----------------------------------------
Total Dipole Moment    :     -0.00000       0.00000      -0.63656
                        -----------------------------------------
Magnitude (a.u.)       :      0.63656
Magnitude (Debye)      :      1.61802

Rotational constants in cm-1:     0.000000    18.905861    18.905861
Rotational constants in MHz :     0.000000 566783.441526 566783.441526

                             ****ORCA TERMINATED NORMALLY****
TOTAL RUN TIME: 0 days 0 hours 1 minutes 28 seconds 436 msec
