                         Program Version 4.1.2  - RELEASE  -
|  1> !uks pbe nori aug-pc-4 grid5 nofinalgrid verytightscf
|  2>
|  3> %maxcore 6000
|  4>
|  5> %pal nprocs 4 end
|  6>
|  7> %scf
|  8> 	efield 0.0, 0.001, 0.0
|  9> 	maxiter 200
| 10> end
| 11>
| 12> * xyz 0 2
| 13> H 0 0 0
| 14> O 0 0 0.9697
| 15> *
| 16>
| 17>                          ****END OF INPUT****

CARTESIAN COORDINATES (ANGSTROEM)
---------------------------------
  H      0.000000    0.000000    0.000000
  O      0.000000    0.000000    0.969700

 Total Charge           Charge          ....    0
 Multiplicity           Mult            ....    2
 Number of Electrons    NEL             ....    9
 Basis Dimension        Dim             ....  233

ORBITAL ENERGIES
----------------
                 SPIN UP ORBITALS
  NO   OCC          E(Eh)            E(eV)
   0   1.0000     -18.828089      -512.3383
   1   1.0000      -0.935440       -25.4546
   2   1.0000      -0.430131       -11.7044
   3   1.0000      -0.367347        -9.9960
   4   1.0000      -0.294184        -8.0051
   5   0.0000      -0.029897        -0.8135
   6   0.0000       0.027522         0.7489
   7   0.0000       0.031287         0.8514
   8   0.0000       0.032916         0.8957
   9   0.0000       0.041996         1.1428

                 SPIN DOWN ORBITALS
  NO   OCC          E(Eh)            E(eV)
   0   1.0000     -18.804452      -511.6952
   1   1.0000      -0.877729       -23.8842
   2   1.0000      -0.407177       -11.0798
   3   1.0000      -0.271516        -7.3883
   4   0.0000      -0.237225        -6.4552
   5   0.0000      -0.024890        -0.6773
   6   0.0000       0.029516         0.8032
   7   0.0000       0.032931         0.8961
   8   0.0000       0.037060         1.0085

MULLIKEN ATOMIC CHARGES AND SPIN POPULATIONS
--------------------------------------------
   0 H :    0.202670    0.003996
   1 O :   -0.202670    0.996004
Sum of atomic charges         :    0.0000000

LOEWDIN ATOMIC CHARGES AND SPIN POPULATIONS
-------------------------------------------
   0 H :   -0.873190    0.180082
   1 O :    0.873190    0.819918

  Mayer bond orders larger than 0.1
B(  0-H ,  1-O ) :   1.0433

FINAL SINGLE POINT ENERGY       -75.690223820903

DIPOLE MOMENT
-------------
                                X             Y             Z
Electronic contribution:     -0.00000       0.00687       0.22769
Nuclear contribution   :      0.00000       0.00000      -0.85498
                        -----------------------------------------
Total Dipole Moment    :     -0.00000       0.00687      -0.62729
                        -----------------------------------------
Magnitude (a.u.)       :      0.62733
Magnitude (Debye)      :      1.59455

Rotational constants in cm-1:     0.000000    18.905861    18.905861
Rotational constants in MHz :     0.000000 566783.441526 566783.441526

                             ****ORCA TERMINATED NORMALLY****
TOTAL RUN TIME: 0 days 0 hours 1 minutes 25 seconds 81 msec
