                         Program Version 4.1.2  - RELEASE  -
|  1> !uks pbe nori aug-pc-4 grid5 nofinalgrid verytightscf
|  2>
|  3> %maxcore 6000
|  4>
|  5> %pal nprocs 4 end
|  6>
|  7> %scf
|  8> 	efield 0.0, 0.0, 0.001
|  9> 	maxiter 200
| 10> end
| 11>
| 12> * xyz 0 2
| 13> H 0 0 0
| 14> O 0 0 0.9697
| 15> *
| 16>
| 17>                          ****END OF INPUT****

CARTESIAN COORDINATES (ANGSTROEM)
---------------------------------
  H      0.000000    0.000000    0.000000
  O      0.000000    0.000000    0.969700

 Total Charge           Charge          ....    0
 Multiplicity           Mult            ....    2
 Number of Electrons    NEL             ....    9
 Basis Dimension        Dim             ....  233

ORBITAL ENERGIES
----------------
                 SPIN UP ORBITALS
  NO   OCC          E(Eh)            E(eV)
   0   1.0000     -18.828366      -512.3459
   1   1.0000      -0.935739       -25.4628
   2   1.0000      -0.430267       -11.7082
   3   1.0000      -0.367468        -9.9993
   4   1.0000      -0.294303        -8.0084
   5   0.0000      -0.032163        -0.8752
   6   0.0000       0.030567         0.8318
   7   0.0000       0.030876         0.8402
   8   0.0000       0.032927         0.8960
   9   0.0000       0.037480         1.0199

                 SPIN DOWN ORBITALS
  NO   OCC          E(Eh)            E(eV)
   0   1.0000     -18.804726      -511.7026
   1   1.0000      -0.878038       -23.8926
   2   1.0000      -0.407294       -11.0830
   3   1.0000      -0.271635        -7.3916
   4   0.0000      -0.237341        -6.4584
   5   0.0000      -0.027390        -0.7453
   6   0.0000       0.032280         0.8784
   7   0.0000       0.032948         0.8966
   8   0.0000       0.038048         1.0353

MULLIKEN ATOMIC CHARGES AND SPIN POPULATIONS
--------------------------------------------
   0 H :    0.200363    0.003949
   1 O :   -0.200363    0.996051
Sum of atomic charges         :    0.0000000

LOEWDIN ATOMIC CHARGES AND SPIN POPULATIONS
-------------------------------------------
   0 H :   -0.873981    0.180099
   1 O :    0.873981    0.819901

  Mayer bond orders larger than 0.1
B(  0-H ,  1-O ) :   1.0466

FINAL SINGLE POINT ENERGY       -75.689597737158

DIPOLE MOMENT
-------------
                                X             Y             Z
Electronic contribution:      0.00000       0.00000       0.23697
Nuclear contribution   :      0.00000       0.00000      -0.85498
                        -----------------------------------------
Total Dipole Moment    :      0.00000       0.00000      -0.61800
                        -----------------------------------------
Magnitude (a.u.)       :      0.61800
Magnitude (Debye)      :      1.57084

Rotational constants in cm-1:     0.000000    18.905861    18.905861
Rotational constants in MHz :     0.000000 566783.441526 566783.441526

                             ****ORCA TERMINATED NORMALLY****
TOTAL RUN TIME: 0 days 0 hours 1 minutes 28 seconds 601 msec
