                         Program Version 4.1.2  - RELEASE  -
|  1> !uks pbe nori aug-pc-4 grid5 nofinalgrid verytightscf
|  2>
|  3> %maxcore 6000
|  4>
|  5> %pal nprocs 4 end
|  6>
|  7> %scf
|  8> 	efield 0.0, 0.0, 0.001
|  9> 	maxiter 200
| 10> end
| 11>
| 12> * xyz 0 2
| 13> S 0.0000 0.0000 0.0000
| 14> Cl 0.0000 0.0000 1.9753
| 15> *
| 16>
| 17>                          ****END OF INPUT****

CARTESIAN COORDINATES (ANGSTROEM)
---------------------------------
  S      0.000000    0.000000    0.000000
  Cl     0.000000    0.000000    1.975300

 Total Charge           Charge          ....    0
 Multiplicity           Mult            ....    2
 Number of Electrons    NEL             ....   33
 Basis Dimension        Dim             ....  282

ORBITAL ENERGIES
----------------
                 SPIN UP ORBITALS
  NO   OCC          E(Eh)            E(eV)
   0   1.0000    -100.705454     -2740.3347
   1   1.0000     -88.095324     -2397.1956
   2   1.0000      -9.226921      -251.0773
   3   1.0000      -7.729122      -210.3201
   4   1.0000      -7.049270      -191.8204
   5   1.0000      -7.043111      -191.6528
   6   1.0000      -7.037574      -191.5021
   7   1.0000      -5.752387      -156.5304
   8   1.0000      -5.752005      -156.5200
   9   1.0000      -5.736513      -156.0984
  10   1.0000      -0.831120       -22.6159
  11   1.0000      -0.628050       -17.0901
  12   1.0000      -0.404622       -11.0103
  13   1.0000      -0.370041       -10.0693
  14   1.0000      -0.350361        -9.5338
  15   1.0000      -0.255719        -6.9585
  16   1.0000      -0.222364        -6.0508
  17   0.0000      -0.106513        -2.8984
  18   0.0000      -0.012734        -0.3465
  19   0.0000       0.013047         0.3550
  20   0.0000       0.014581         0.3968
  21   0.0000       0.015650         0.4259

                 SPIN DOWN ORBITALS
  NO   OCC          E(Eh)            E(eV)
   0   1.0000    -100.704181     -2740.3001
   1   1.0000     -88.091400     -2397.0889
   2   1.0000      -9.225704      -251.0442
   3   1.0000      -7.725129      -210.2115
   4   1.0000      -7.048660      -191.8038
   5   1.0000      -7.039369      -191.5510
   6   1.0000      -7.036817      -191.4815
   7   1.0000      -5.749548      -156.4532
   8   1.0000      -5.740837      -156.2161
   9   1.0000      -5.734136      -156.0338
  10   1.0000      -0.822768       -22.3887
  11   1.0000      -0.603761       -16.4292
  12   1.0000      -0.394225       -10.7274
  13   1.0000      -0.347308        -9.4507
  14   1.0000      -0.346753        -9.4356
  15   1.0000      -0.213429        -5.8077
  16   0.0000      -0.204290        -5.5590
  17   0.0000      -0.096144        -2.6162
  18   0.0000      -0.008444        -0.2298
  19   0.0000       0.016166         0.4399
  20   0.0000       0.016679         0.4539

MULLIKEN ATOMIC CHARGES AND SPIN POPULATIONS
--------------------------------------------
   0 S :   -0.114973    0.792843
   1 Cl:    0.114973    0.207157
Sum of atomic charges         :    0.0000000

LOEWDIN ATOMIC CHARGES AND SPIN POPULATIONS
-------------------------------------------
   0 S :    0.136377    0.658187
   1 Cl:   -0.136377    0.341813

  Mayer bond orders larger than 0.1
B(  0-S ,  1-Cl) :   1.4788

FINAL SINGLE POINT ENERGY      -858.050795147937

DIPOLE MOMENT
-------------
                                X             Y             Z
Electronic contribution:      0.00000      -0.00000       1.35079
Nuclear contribution   :      0.00000       0.00000      -1.22898
                        -----------------------------------------
Total Dipole Moment    :      0.00000      -0.00000       0.12181
                        -----------------------------------------
Magnitude (a.u.)       :      0.12181
Magnitude (Debye)      :      0.30963

Rotational constants in cm-1:     0.000000     0.256627     0.256627
Rotational constants in MHz :     0.000000  7693.471946  7693.471946

                             ****ORCA TERMINATED NORMALLY****
TOTAL RUN TIME: 0 days 0 hours 9 minutes 44 seconds 736 msec
