                         Program Version 4.1.2  - RELEASE  -
|  1> !uks pbe nori aug-pc-4 grid5 nofinalgrid verytightscf
|  2>
|  3> %maxcore 6000
|  4>
|  5> %pal nprocs 4 end
|  6>
|  7> %scf
|  8> 	efield 0.0, 0.0, -0.001
|  9> 	maxiter 200
| 10> end
| 11>
| 12> * xyz 0 2
| 13> S 0.0000 0.0000 0.0000
| 14> Cl 0.0000 0.0000 1.9753
| 15> *
| 16>
| 17>                          ****END OF INPUT****

CARTESIAN COORDINATES (ANGSTROEM)
---------------------------------
  S      0.000000    0.000000    0.000000
  Cl     0.000000    0.000000    1.975300

 Total Charge           Charge          ....    0
 Multiplicity           Mult            ....    2
 Number of Electrons    NEL             ....   33
 Basis Dimension        Dim             ....  282

ORBITAL ENERGIES
----------------
                 SPIN UP ORBITALS
  NO   OCC          E(Eh)            E(eV)
   0   1.0000    -100.705196     -2740.3277
   1   1.0000     -88.094360     -2397.1694
   2   1.0000      -9.226784      -251.0736
   3   1.0000      -7.728101      -210.2923
   4   1.0000      -7.049065      -191.8148
   5   1.0000      -7.042902      -191.6471
   6   1.0000      -7.037515      -191.5005
   7   1.0000      -5.751414      -156.5039
   8   1.0000      -5.751065      -156.4944
   9   1.0000      -5.735401      -156.0682
  10   1.0000      -0.831084       -22.6149
  11   1.0000      -0.627364       -17.0715
  12   1.0000      -0.404114       -10.9965
  13   1.0000      -0.369973       -10.0675
  14   1.0000      -0.350560        -9.5392
  15   1.0000      -0.254845        -6.9347
  16   1.0000      -0.221201        -6.0192
  17   0.0000      -0.105624        -2.8742
  18   0.0000      -0.013063        -0.3555
  19   0.0000       0.015575         0.4238
  20   0.0000       0.015771         0.4291
  21   0.0000       0.018151         0.4939

                 SPIN DOWN ORBITALS
  NO   OCC          E(Eh)            E(eV)
   0   1.0000    -100.703964     -2740.2942
   1   1.0000     -88.090403     -2397.0617
   2   1.0000      -9.225606      -251.0415
   3   1.0000      -7.724072      -210.1827
   4   1.0000      -7.048483      -191.7990
   5   1.0000      -7.039271      -191.5483
   6   1.0000      -7.036782      -191.4806
   7   1.0000      -5.748586      -156.4270
   8   1.0000      -5.739762      -156.1869
   9   1.0000      -5.733005      -156.0030
  10   1.0000      -0.822842       -22.3907
  11   1.0000      -0.602978       -16.4079
  12   1.0000      -0.393650       -10.7118
  13   1.0000      -0.347633        -9.4596
  14   1.0000      -0.347032        -9.4432
  15   1.0000      -0.212179        -5.7737
  16   0.0000      -0.202856        -5.5200
  17   0.0000      -0.095227        -2.5913
  18   0.0000      -0.009631        -0.2621
  19   0.0000       0.018599         0.5061
  20   0.0000       0.019187         0.5221

MULLIKEN ATOMIC CHARGES AND SPIN POPULATIONS
--------------------------------------------
   0 S :   -0.099848    0.798836
   1 Cl:    0.099848    0.201164
Sum of atomic charges         :    0.0000000

LOEWDIN ATOMIC CHARGES AND SPIN POPULATIONS
-------------------------------------------
   0 S :    0.144022    0.661668
   1 Cl:   -0.144022    0.338332

  Mayer bond orders larger than 0.1
B(  0-S ,  1-Cl) :   1.4626

FINAL SINGLE POINT ENERGY      -858.050653921582

DIPOLE MOMENT
-------------
                                X             Y             Z
Electronic contribution:     -0.00000      -0.00000       1.24846
Nuclear contribution   :      0.00000       0.00000      -1.22898
                        -----------------------------------------
Total Dipole Moment    :     -0.00000      -0.00000       0.01948
                        -----------------------------------------
Magnitude (a.u.)       :      0.01948
Magnitude (Debye)      :      0.04951

Rotational constants in cm-1:     0.000000     0.256627     0.256627
Rotational constants in MHz :     0.000000  7693.471946  7693.471946

                             ****ORCA TERMINATED NORMALLY****
TOTAL RUN TIME: 0 days 0 hours 7 minutes 58 seconds 209 msec
