                         Program Version 4.1.2  - RELEASE  -
|  1> !uks pbe nori aug-pc-4 grid5 nofinalgrid verytightscf
|  2>
|  3> %maxcore 6000
|  4>
|  5> %pal nprocs 4 end
|  6>
|  7> %scf
|  8> 	efield 0.001, 0.0, 0.0
|  9> 	maxiter 200
| 10> end
| 11>
| 12> * xyz 0 2
| 13> S 0.0000 0.0000 0.0000
| 14> Cl 0.0000 0.0000 1.9753
| 15> *
| 16>
| 17>                          ****END OF INPUT****

CARTESIAN COORDINATES (ANGSTROEM)
---------------------------------
  S      0.000000    0.000000    0.000000
  Cl     0.000000    0.000000    1.975300

 Total Charge           Charge          ....    0
 Multiplicity           Mult            ....    2
 Number of Electrons    NEL             ....   33
 Basis Dimension        Dim             ....  282

ORBITAL ENERGIES
----------------
                 SPIN UP ORBITALS
  NO   OCC          E(Eh)            E(eV)
   0   1.0000    -100.705319     -2740.3311
   1   1.0000     -88.094842     -2397.1825
   2   1.0000      -9.226847      -251.0753
   3   1.0000      -7.728611      -210.3062
   4   1.0000      -7.049162      -191.8174
   5   1.0000      -7.043000      -191.6498
   6   1.0000      -7.037539      -191.5012
   7   1.0000      -5.751901      -156.5172
   8   1.0000      -5.751535      -156.5072
   9   1.0000      -5.735957      -156.0833
  10   1.0000      -0.831098       -22.6153
  11   1.0000      -0.627705       -17.0807
  12   1.0000      -0.404366       -11.0034
  13   1.0000      -0.370003       -10.0683
  14   1.0000      -0.350456        -9.5364
  15   1.0000      -0.255282        -6.9466
  16   1.0000      -0.221782        -6.0350
  17   0.0000      -0.106050        -2.8858
  18   0.0000      -0.012897        -0.3509
  19   0.0000       0.014880         0.4049
  20   0.0000       0.016521         0.4496
  21   0.0000       0.017378         0.4729

                 SPIN DOWN ORBITALS
  NO   OCC          E(Eh)            E(eV)
   0   1.0000    -100.704067     -2740.2970
   1   1.0000     -88.090901     -2397.0753
   2   1.0000      -9.225650      -251.0427
   3   1.0000      -7.724601      -210.1971
   4   1.0000      -7.048566      -191.8012
   5   1.0000      -7.039314      -191.5495
   6   1.0000      -7.036794      -191.4809
   7   1.0000      -5.749067      -156.4401
   8   1.0000      -5.740299      -156.2015
   9   1.0000      -5.733571      -156.0184
  10   1.0000      -0.822802       -22.3896
  11   1.0000      -0.603368       -16.4185
  12   1.0000      -0.393936       -10.7195
  13   1.0000      -0.347466        -9.4550
  14   1.0000      -0.346888        -9.4393
  15   1.0000      -0.212804        -5.7907
  16   0.0000      -0.203575        -5.5395
  17   0.0000      -0.095663        -2.6031
  18   0.0000      -0.008968        -0.2440
  19   0.0000       0.017876         0.4864
  20   0.0000       0.018946         0.5155

MULLIKEN ATOMIC CHARGES AND SPIN POPULATIONS
--------------------------------------------
   0 S :   -0.107614    0.795898
   1 Cl:    0.107614    0.204102
Sum of atomic charges         :    0.0000000

LOEWDIN ATOMIC CHARGES AND SPIN POPULATIONS
-------------------------------------------
   0 S :    0.140202    0.659940
   1 Cl:   -0.140202    0.340060

  Mayer bond orders larger than 0.1
B(  0-S ,  1-Cl) :   1.4703

FINAL SINGLE POINT ENERGY      -858.050713459958

DIPOLE MOMENT
-------------
                                X             Y             Z
Electronic contribution:      0.02902       0.00000       1.29960
Nuclear contribution   :      0.00000       0.00000      -1.22898
                        -----------------------------------------
Total Dipole Moment    :      0.02902       0.00000       0.07061
                        -----------------------------------------
Magnitude (a.u.)       :      0.07634
Magnitude (Debye)      :      0.19405

Rotational constants in cm-1:     0.000000     0.256627     0.256627
Rotational constants in MHz :     0.000000  7693.471946  7693.471946

                             ****ORCA TERMINATED NORMALLY****
TOTAL RUN TIME: 0 days 0 hours 8 minutes 53 seconds 175 msec
