                         Program Version 4.1.2  - RELEASE  -
|  1> !uks pbe nori aug-pc-4 grid5 nofinalgrid verytightscf
|  2>
|  3> %maxcore 6000
|  4>
|  5> %pal nprocs 4 end
|  6>
|  7> %scf
|  8> 	efield 0.0, -0.001, 0.0
|  9> 	maxiter 200
| 10> end
| 11>
| 12> * xyz 0 2
| 13> S 0.0000 0.0000 0.0000
| 14> F 0.0000 0.0000 1.6006
| 15> *
| 16>
| 17>                          ****END OF INPUT****

CARTESIAN COORDINATES (ANGSTROEM)
---------------------------------
  S      0.000000    0.000000    0.000000
  F      0.000000    0.000000    1.600600

 Total Charge           Charge          ....    0
 Multiplicity           Mult            ....    2
 Number of Electrons    NEL             ....   25
 Basis Dimension        Dim             ....  286

ORBITAL ENERGIES
----------------
                 SPIN UP ORBITALS
  NO   OCC          E(Eh)            E(eV)
   0   1.0000     -88.122200     -2397.9270
   1   1.0000     -24.315078      -661.6469
   2   1.0000      -7.753049      -210.9712
   3   1.0000      -5.777793      -157.2217
   4   1.0000      -5.776776      -157.1941
   5   1.0000      -5.759028      -156.7111
   6   1.0000      -1.155039       -31.4302
   7   1.0000      -0.667351       -18.1595
   8   1.0000      -0.465412       -12.6645
   9   1.0000      -0.448155       -12.1949
  10   1.0000      -0.430635       -11.7182
  11   1.0000      -0.269293        -7.3278
  12   1.0000      -0.228321        -6.2129
  13   0.0000      -0.108262        -2.9460
  14   0.0000      -0.008940        -0.2433
  15   0.0000       0.016765         0.4562
  16   0.0000       0.019276         0.5245
  17   0.0000       0.025115         0.6834

                 SPIN DOWN ORBITALS
  NO   OCC          E(Eh)            E(eV)
   0   1.0000     -88.117881     -2397.8094
   1   1.0000     -24.311327      -661.5448
   2   1.0000      -7.748622      -210.8507
   3   1.0000      -5.775159      -157.1501
   4   1.0000      -5.763903      -156.8438
   5   1.0000      -5.756422      -156.6402
   6   1.0000      -1.147784       -31.2328
   7   1.0000      -0.642017       -17.4702
   8   1.0000      -0.450933       -12.2705
   9   1.0000      -0.427013       -11.6196
  10   1.0000      -0.426947       -11.6178
  11   1.0000      -0.217591        -5.9209
  12   0.0000      -0.204811        -5.5732
  13   0.0000      -0.093949        -2.5565
  14   0.0000      -0.002989        -0.0813
  15   0.0000       0.019909         0.5417
  16   0.0000       0.023642         0.6433

MULLIKEN ATOMIC CHARGES AND SPIN POPULATIONS
--------------------------------------------
   0 S :    0.005717    0.914875
   1 F :   -0.005717    0.085125
Sum of atomic charges         :   -0.0000000

LOEWDIN ATOMIC CHARGES AND SPIN POPULATIONS
-------------------------------------------
   0 S :    0.998752    0.671443
   1 F :   -0.998752    0.328557

  Mayer bond orders larger than 0.1
B(  0-S ,  1-F ) :   0.9763

FINAL SINGLE POINT ENERGY      -497.780843071232

DIPOLE MOMENT
-------------
                                X             Y             Z
Electronic contribution:     -0.00000      -0.02074       0.70059
Nuclear contribution   :      0.00000       0.00000      -0.91396
                        -----------------------------------------
Total Dipole Moment    :     -0.00000      -0.02074      -0.21337
                        -----------------------------------------
Magnitude (a.u.)       :      0.21438
Magnitude (Debye)      :      0.54490

Rotational constants in cm-1:     0.000000     0.551599     0.551599
Rotational constants in MHz :     0.000000 16536.529748 16536.529748

                             ****ORCA TERMINATED NORMALLY****
TOTAL RUN TIME: 0 days 0 hours 6 minutes 49 seconds 401 msec
