                         Program Version 4.1.2  - RELEASE  -
|  1> !uks pbe nori aug-pc-4 grid5 nofinalgrid verytightscf
|  2>
|  3> %maxcore 6000
|  4>
|  5> %pal nprocs 4 end
|  6>
|  7> %scf
|  8> 	efield 0.0, 0.0, -0.001
|  9> 	maxiter 200
| 10> end
| 11>
| 12> * xyz 0 2
| 13> S 0.0000 0.0000 0.0000
| 14> F 0.0000 0.0000 1.6006
| 15> *
| 16>
| 17>                          ****END OF INPUT****

CARTESIAN COORDINATES (ANGSTROEM)
---------------------------------
  S      0.000000    0.000000    0.000000
  F      0.000000    0.000000    1.600600

 Total Charge           Charge          ....    0
 Multiplicity           Mult            ....    2
 Number of Electrons    NEL             ....   25
 Basis Dimension        Dim             ....  286

ORBITAL ENERGIES
----------------
                 SPIN UP ORBITALS
  NO   OCC          E(Eh)            E(eV)
   0   1.0000     -88.121448     -2397.9065
   1   1.0000     -24.315033      -661.6457
   2   1.0000      -7.752302      -210.9508
   3   1.0000      -5.777085      -157.2025
   4   1.0000      -5.776029      -157.1737
   5   1.0000      -5.758247      -156.6899
   6   1.0000      -1.155200       -31.4346
   7   1.0000      -0.666968       -18.1491
   8   1.0000      -0.465141       -12.6571
   9   1.0000      -0.448328       -12.1996
  10   1.0000      -0.430893       -11.7252
  11   1.0000      -0.268594        -7.3088
  12   1.0000      -0.227538        -6.1916
  13   0.0000      -0.107409        -2.9227
  14   0.0000      -0.006667        -0.1814
  15   0.0000       0.017867         0.4862
  16   0.0000       0.020797         0.5659
  17   0.0000       0.025057         0.6818

                 SPIN DOWN ORBITALS
  NO   OCC          E(Eh)            E(eV)
   0   1.0000     -88.117122     -2397.7888
   1   1.0000     -24.311308      -661.5443
   2   1.0000      -7.747867      -210.8302
   3   1.0000      -5.774447      -157.1307
   4   1.0000      -5.763132      -156.8228
   5   1.0000      -5.755637      -156.6188
   6   1.0000      -1.147991       -31.2384
   7   1.0000      -0.641681       -17.4610
   8   1.0000      -0.450581       -12.2609
   9   1.0000      -0.427320       -11.6280
  10   1.0000      -0.427231       -11.6256
  11   1.0000      -0.216788        -5.8991
  12   0.0000      -0.203969        -5.5503
  13   0.0000      -0.093095        -2.5332
  14   0.0000      -0.000854        -0.0232
  15   0.0000       0.021397         0.5823
  16   0.0000       0.024599         0.6694

MULLIKEN ATOMIC CHARGES AND SPIN POPULATIONS
--------------------------------------------
   0 S :    0.010254    0.915818
   1 F :   -0.010254    0.084182
Sum of atomic charges         :   -0.0000000

LOEWDIN ATOMIC CHARGES AND SPIN POPULATIONS
-------------------------------------------
   0 S :    1.001000    0.671937
   1 F :   -1.001000    0.328063

  Mayer bond orders larger than 0.1
B(  0-S ,  1-F ) :   0.9729

FINAL SINGLE POINT ENERGY      -497.781058996945

DIPOLE MOMENT
-------------
                                X             Y             Z
Electronic contribution:     -0.00000       0.00000       0.67477
Nuclear contribution   :      0.00000       0.00000      -0.91396
                        -----------------------------------------
Total Dipole Moment    :     -0.00000       0.00000      -0.23919
                        -----------------------------------------
Magnitude (a.u.)       :      0.23919
Magnitude (Debye)      :      0.60796

Rotational constants in cm-1:     0.000000     0.551599     0.551599
Rotational constants in MHz :     0.000000 16536.529748 16536.529748

                             ****ORCA TERMINATED NORMALLY****
TOTAL RUN TIME: 0 days 0 hours 6 minutes 50 seconds 339 msec
