                         Program Version 4.1.2  - RELEASE  -
|  1> !uks pbe nori aug-pc-4 grid5 nofinalgrid verytightscf
|  2>
|  3> %maxcore 6000
|  4>
|  5> %pal nprocs 4 end
|  6>
|  7> %scf
|  8> 	efield 0.0, 0.0, 0.001
|  9> 	maxiter 200
| 10> end
| 11>
| 12> * xyz 0 2
| 13> S 0.0000 0.0000 0.0000
| 14> F 0.0000 0.0000 1.6006
| 15> *
| 16>
| 17>                          ****END OF INPUT****

CARTESIAN COORDINATES (ANGSTROEM)
---------------------------------
  S      0.000000    0.000000    0.000000
  F      0.000000    0.000000    1.600600

 Total Charge           Charge          ....    0
 Multiplicity           Mult            ....    2
 Number of Electrons    NEL             ....   25
 Basis Dimension        Dim             ....  286

ORBITAL ENERGIES
----------------
                 SPIN UP ORBITALS
  NO   OCC          E(Eh)            E(eV)
   0   1.0000     -88.122944     -2397.9472
   1   1.0000     -24.315129      -661.6483
   2   1.0000      -7.753789      -210.9913
   3   1.0000      -5.778494      -157.2408
   4   1.0000      -5.777517      -157.2142
   5   1.0000      -5.759803      -156.7322
   6   1.0000      -1.154881       -31.4259
   7   1.0000      -0.667735       -18.1700
   8   1.0000      -0.465679       -12.6718
   9   1.0000      -0.447987       -12.1903
  10   1.0000      -0.430381       -11.7113
  11   1.0000      -0.269985        -7.3467
  12   1.0000      -0.229100        -6.2341
  13   0.0000      -0.109133        -2.9697
  14   0.0000      -0.010921        -0.2972
  15   0.0000       0.014667         0.3991
  16   0.0000       0.017554         0.4777
  17   0.0000       0.024775         0.6742

                 SPIN DOWN ORBITALS
  NO   OCC          E(Eh)            E(eV)
   0   1.0000     -88.118632     -2397.8299
   1   1.0000     -24.311350      -661.5455
   2   1.0000      -7.749370      -210.8711
   3   1.0000      -5.775865      -157.1693
   4   1.0000      -5.764667      -156.8646
   5   1.0000      -5.757201      -156.6614
   6   1.0000      -1.147579       -31.2272
   7   1.0000      -0.642355       -17.4794
   8   1.0000      -0.451280       -12.2800
   9   1.0000      -0.426711       -11.6114
  10   1.0000      -0.426666       -11.6102
  11   1.0000      -0.218389        -5.9427
  12   0.0000      -0.205645        -5.5959
  13   0.0000      -0.094828        -2.5804
  14   0.0000      -0.005173        -0.1408
  15   0.0000       0.018184         0.4948
  16   0.0000       0.021796         0.5931

MULLIKEN ATOMIC CHARGES AND SPIN POPULATIONS
--------------------------------------------
   0 S :    0.001406    0.913873
   1 F :   -0.001406    0.086127
Sum of atomic charges         :   -0.0000000

LOEWDIN ATOMIC CHARGES AND SPIN POPULATIONS
-------------------------------------------
   0 S :    0.996499    0.670944
   1 F :   -0.996499    0.329056

  Mayer bond orders larger than 0.1
B(  0-S ,  1-F ) :   0.9801

FINAL SINGLE POINT ENERGY      -497.780632245800

DIPOLE MOMENT
-------------
                                X             Y             Z
Electronic contribution:      0.00000       0.00000       0.72646
Nuclear contribution   :      0.00000       0.00000      -0.91396
                        -----------------------------------------
Total Dipole Moment    :      0.00000       0.00000      -0.18750
                        -----------------------------------------
Magnitude (a.u.)       :      0.18750
Magnitude (Debye)      :      0.47659

Rotational constants in cm-1:     0.000000     0.551599     0.551599
Rotational constants in MHz :     0.000000 16536.529748 16536.529748

                             ****ORCA TERMINATED NORMALLY****
TOTAL RUN TIME: 0 days 0 hours 6 minutes 48 seconds 673 msec
